ITEM: TIMESTEP
0
ITEM: NUMBER OF ATOMS
7711
ITEM: BOX BOUNDS xy xz yz pp pp pp
-1.1470696736749321e+01 1.5578850732249194e+01 -8.4656002771784979e-15
-5.3855162009401951e+01 6.2071470000401547e+01 3.7760894709293605e-15
-1.4800518080930104e+01 3.6908672076071269e+01 3.7760894709293605e-15
ITEM: ATOMS id type x y z
3 2 -9.36707 -51.8195 -4.58483
5 2 -11.3507 -51.6363 -6.58243
41 2 -11.2669 -50.176 -4.44813
4 2 -11.2467 -53.5811 -4.51232
1105 2 -7.51536 -52.0894 -6.40356
1103 2 -5.52145 -51.9827 -4.76383
2201 2 -3.45592 -51.6525 -6.70197
2199 2 -1.75619 -51.9667 -4.85232
2200 2 -3.69843 -53.8037 -4.7967
3312 2 0.300067 -51.6975 -6.63948
3310 2 2.08957 -52.0405 -4.28946
3311 2 0.236236 -53.7739 -4.4932
3309 2 1.94067 -53.6352 -6.4744
4411 2 3.98846 -52.1638 -6.36052
4409 2 5.92715 -52.2025 -4.25769
4446 2 5.79177 -50.1378 -6.18948
5553 2 7.62509 -50.179 -4.51093
6616 2 11.5061 -53.8456 -4.36895
5518 2 8.06193 -52.1987 -6.42178
5516 2 9.94116 -51.7421 -4.48859
6617 2 11.7725 -51.9572 -6.56467
6615 2 13.8277 -52.1036 -4.67621
6614 2 13.9151 -53.7519 -6.68423
39 2 -9.17179 -49.8608 -6.47068
76 2 -8.8906 -46.4216 -6.51665
40 2 -9.45729 -48.129 -4.49398
5661 1 -9.28286 -48.0305 -6.31791
42 2 -11.1324 -47.9885 -6.3339
1140 2 -7.39068 -49.9488 -4.49632
1138 2 -5.39838 -49.8305 -6.48442
1141 2 -7.32902 -48.2288 -6.49956
7609 1 -3.83421 -49.8215 -6.52368
1139 2 -5.52663 -48.1111 -4.61118
2237 2 -3.64266 -49.9306 -4.65805
2235 2 -1.54258 -49.7161 -6.51542
2238 2 -3.65041 -47.9985 -6.45088
2236 2 -1.76122 -48.1593 -4.50507
3347 2 0.146233 -50.1112 -4.65468
3345 2 2.25384 -49.9089 -6.20056
3348 2 0.505156 -47.7479 -6.53942
5628 1 2.34604 -47.5196 -6.23503
3346 2 2.0404 -48.0497 -4.20872
4449 2 3.84893 -47.9301 -6.25789
4448 2 4.15423 -50.0374 -4.4343
4447 2 5.97428 -48.2429 -4.27261
5551 2 9.87795 -50.0738 -6.35165
5554 2 8.04583 -48.22 -6.49612
4518 1 8.08617 -46.4318 -6.33454
5552 2 9.77838 -48.1662 -4.58893
6653 2 11.8946 -50.057 -4.64868
6651 2 13.5399 -50.114 -6.47135
6654 2 11.9024 -48.0934 -6.6315
3276 1 12.0913 -49.4604 -6.22353
6652 2 13.7721 -48.0462 -4.65271
78 2 -11.2126 -46.0873 -4.57988
77 2 -9.17506 -44.3558 -4.60841
1179 2 -7.70807 -43.8806 -6.43077
79 2 -11.3354 -44.0757 -6.31391
1178 2 -7.54148 -46.2588 -4.44475
1176 2 -5.55452 -46.0298 -6.36251
1177 2 -5.53253 -44.2556 -4.37002
2273 2 -3.68107 -46.2031 -4.36117
2271 2 -1.76726 -46.1518 -6.0941
2274 2 -3.6829 -44.1205 -6.28007
2272 2 -1.62069 -44.1857 -4.25353
3386 2 -0.0593559 -43.9273 -6.44545
3385 2 0.289213 -46.1276 -4.42399
3383 2 2.29764 -45.8951 -6.47695
3384 2 2.33964 -44.1181 -4.29364
4484 2 4.28525 -46.1504 -4.21185
4482 2 6.03927 -46.3018 -6.38613
5589 2 7.84768 -46.3208 -4.57422
4485 2 4.46458 -44.2096 -6.02216
4483 2 6.08047 -44.1367 -4.14856
5587 2 9.7338 -46.0985 -6.30389
6690 2 11.6712 -46.1039 -4.50814
5590 2 7.98479 -44.3539 -6.2725
5588 2 9.83428 -44.4245 -4.27351
6688 2 13.8808 -45.8156 -6.3256
6691 2 11.7203 -44.3525 -6.28489
4519 1 11.8006 -42.6895 -6.16981
6689 2 13.699 -44.472 -4.39561
112 2 -9.7419 -42.148 -6.05973
113 2 -9.71503 -40.2496 -4.35148
1215 2 -7.66642 -40.4366 -6.28084
1214 2 -7.40401 -42.3875 -4.39198
51 1 -7.2419 -42.214 -6.12872
1212 2 -5.60672 -42.334 -6.40967
1213 2 -5.77197 -40.2037 -4.53909
2313 2 -3.84262 -40.2612 -6.22085
2312 2 -3.70287 -42.1942 -4.53559
2310 2 -1.93761 -42.196 -6.26881
3422 2 0.0614924 -42.2135 -4.53269
205 1 -0.37119 -42.2465 -6.43287
2311 2 -1.71611 -40.2727 -4.46965
3423 2 0.119516 -40.5763 -6.54071
3420 2 2.3107 -42.2848 -6.28157
3421 2 2.25472 -40.3256 -4.47733
4523 2 3.95873 -40.0381 -6.62484
4522 2 4.31416 -42.0397 -4.55936
4520 2 6.09031 -42.1105 -6.57419
2309 1 6.15926 -40.3371 -6.42421
4521 2 5.96255 -40.1882 -4.5683
5627 2 7.76398 -40.4246 -6.33299
5626 2 7.87338 -42.2565 -4.32268
5624 2 10.0827 -42.3965 -6.28291
5625 2 10.018 -40.3609 -4.40791
6727 2 11.8634 -42.4319 -4.34518
114 2 15.2472 -42.3224 -4.50349
6725 2 13.4309 -42.4608 -6.41695
115 2 15.216 -40.0362 -6.74757
6728 2 11.8399 -40.4264 -6.47832
6726 2 13.6668 -40.253 -4.51363
149 2 -9.82368 -38.6377 -6.74786
1250 2 -7.74406 -38.4056 -4.5876
148 1 -11.2989 -38.5855 -6.67356
150 2 -9.52761 -36.4689 -4.55643
1251 2 -7.65234 -36.5502 -6.4275
152 2 -11.3449 -36.4423 -6.41135
1248 2 -5.83003 -38.2378 -6.56918
1249 2 -5.4 -36.463 -4.53902
2349 2 -3.40575 -38.2535 -4.62079
2347 2 -1.19798 -38.3325 -6.16144
2350 2 -3.57727 -36.1755 -6.59617
2348 2 -1.61144 -36.1194 -4.74941
3459 2 0.242864 -38.4497 -4.27006
3457 2 2.02845 -38.5311 -6.2483
4559 2 3.92241 -38.2557 -4.47167
3460 2 0.373202 -36.3012 -6.29573
3458 2 2.32481 -36.354 -4.23317
4560 2 3.86386 -36.4955 -6.45836
4557 2 5.91813 -38.5529 -6.41584
5664 2 7.83809 -38.4428 -4.49088
4558 2 5.88262 -36.5281 -4.6524
5665 2 7.71612 -36.4646 -6.42648
5662 2 9.79358 -38.3971 -6.31667
5663 2 9.69299 -36.4548 -4.5123
6764 2 11.5661 -36.4133 -6.21369
151 2 15.4618 -38.4455 -4.44213
6763 2 11.9197 -38.1768 -4.3822
6761 2 13.7823 -37.8844 -6.63238
6762 2 13.8102 -36.4972 -4.55943
185 2 -9.28722 -34.2792 -6.34831
186 2 -9.60386 -32.6508 -4.43354
1287 2 -7.45019 -34.7658 -4.3927
1285 2 -5.74901 -34.6476 -6.43771
2385 2 -3.84119 -34.4879 -4.56888
1288 2 -7.5843 -32.6262 -6.34486
1286 2 -5.74845 -32.7579 -4.63095
2383 2 -1.39335 -34.5713 -6.81535
2386 2 -3.68529 -32.6368 -6.39553
2384 2 -1.66284 -32.716 -4.75797
1361 1 0.358791 -34.3163 -6.57534
3495 2 0.34903 -34.4462 -4.48789
3493 2 2.31474 -34.4962 -6.65386
3496 2 0.172181 -32.6505 -6.58432
3494 2 2.1084 -32.5359 -4.37282
4595 2 4.04064 -34.4541 -4.40301
4593 2 5.76167 -34.6769 -6.39902
4596 2 4.26085 -32.4891 -6.32782
4594 2 5.97785 -32.5993 -4.66358
5702 2 7.81707 -32.7219 -6.5054
5701 2 7.8873 -34.5702 -4.7618
5699 2 9.82621 -34.6275 -6.66766
5700 2 9.84883 -32.7133 -4.693
187 2 15.5191 -34.6163 -4.61344
6800 2 11.7614 -34.4757 -4.47175
6798 2 13.5426 -34.6027 -6.58821
6801 2 11.79 -32.6801 -6.68211
188 2 15.4971 -32.684 -6.45519
6799 2 13.7195 -32.6884 -4.58164
223 2 -9.26393 -30.6806 -6.46967
225 2 -11.2887 -30.7382 -4.56761
1323 2 -7.75215 -30.8057 -4.41609
224 2 -9.61762 -28.7647 -4.46415
226 2 -11.2698 -28.951 -6.45511
2346 1 -5.89387 -29.164 -6.5817
1321 2 -5.59328 -30.9158 -6.57379
2423 2 -3.81941 -30.7218 -4.69647
1324 2 -7.57538 -28.8739 -6.61208
1322 2 -6.01781 -28.8056 -4.68573
2424 2 -3.80999 -28.7159 -6.45732
2421 2 -1.78761 -30.5905 -6.58451
5678 1 0.0893075 -30.2971 -6.14129
2422 2 -1.68933 -28.8424 -4.45896
3532 2 0.179725 -30.677 -4.44017
3530 2 2.06273 -30.8332 -6.65257
3533 2 0.223538 -28.9984 -6.76284
3531 2 1.97313 -28.7675 -4.71961
4634 2 3.87239 -28.9946 -6.54994
4633 2 4.03586 -30.7664 -4.52257
4631 2 6.11939 -30.6933 -6.4463
4632 2 5.84337 -28.7321 -4.59106
5738 2 7.75843 -28.8698 -6.29847
5737 2 7.93026 -30.7762 -4.61346
5735 2 9.7545 -30.8129 -6.53478
6836 2 11.6947 -30.7966 -4.79041
227 1 11.5487 -30.6563 -6.49027
5736 2 9.93178 -28.9569 -4.57438
6834 2 13.7159 -30.6467 -6.54624
6837 2 11.7911 -28.8923 -6.50626
6835 2 13.7615 -29.1044 -4.5449
264 2 -11.4113 -25.021 -6.90172
261 2 -9.42964 -27.0749 -6.59876
1359 2 -7.95901 -26.8331 -4.43961
262 2 -9.8057 -25.0326 -4.77402
1360 2 -7.93664 -24.7198 -6.95293
222 1 -9.5374 -24.794 -6.61767
1357 2 -6.00696 -26.8199 -6.57737
2460 2 -3.7562 -26.9381 -4.75277
1358 2 -5.93774 -25.03 -4.63257
2458 2 -1.8033 -27.0352 -6.6962
3569 2 0.0638235 -26.6721 -4.85148
2461 2 -3.43624 -24.9391 -6.62721
3566 1 -1.89474 -25.4773 -6.39309
3570 2 -0.430111 -24.8914 -6.73674
2459 2 -2.09824 -24.7181 -4.63306
3567 2 1.99355 -26.8374 -6.39391
3568 2 2.12308 -24.9605 -4.70269
4670 2 3.89064 -24.945 -6.6246
6906 1 5.92439 -24.9679 -6.33432
4669 2 4.03147 -26.9878 -4.4051
4667 2 5.53728 -26.7533 -6.52522
5775 2 7.74071 -24.9913 -6.50871
4668 2 5.63131 -24.9044 -4.42769
5774 2 7.94487 -26.8814 -4.73822
5772 2 9.81512 -27.2189 -6.69488
5773 2 9.84238 -25.1176 -4.60791
263 2 15.3393 -27.0018 -4.30632
6872 2 11.8567 -26.9979 -4.67471
6870 2 13.8317 -27.024 -6.27707
6873 2 11.8696 -25.1987 -6.53212
6871 2 13.7738 -24.9439 -4.71083
298 2 -9.86342 -22.8669 -6.65068
299 2 -9.59086 -20.9474 -4.54819
1396 2 -7.92223 -23.2143 -4.89321
1397 2 -7.52544 -21.2367 -6.59947
1394 2 -5.58594 -23.0716 -6.64406
1395 2 -5.7702 -20.9323 -4.67834
5822 1 -5.58471 -21.2801 -6.75357
2498 2 -3.98617 -20.9979 -6.64733
2497 2 -3.93469 -22.6816 -4.60941
2495 2 -2.06186 -22.7754 -6.43918
2496 2 -1.73139 -20.9535 -4.59066
3605 2 -0.152586 -23.1043 -4.67985
3606 2 -0.0834575 -20.8945 -6.68676
3603 2 1.63984 -23.1327 -6.51574
3604 2 1.70393 -20.9378 -4.87687
4707 2 3.89222 -22.8876 -4.72343
4708 2 3.86909 -20.9986 -6.28562
4705 2 5.95698 -23.1485 -6.50065
4706 2 5.97384 -21.0559 -4.49854
5812 2 7.84175 -23.1624 -4.47134
5813 2 7.89368 -21.2644 -6.13513
5810 2 9.81316 -23.3181 -6.27114
5811 2 9.84742 -21.0698 -4.45648
6909 2 11.7045 -23.2997 -4.61794
6910 2 11.7863 -21.2961 -6.33901
300 2 15.5226 -23.0436 -4.51233
301 2 15.4682 -20.9661 -6.68737
6907 2 13.7992 -23.1344 -6.54557
6908 2 13.617 -21.1715 -4.60705
334 2 -9.71589 -19.0213 -6.36233
335 2 -9.60035 -16.9847 -4.76427
269 1 -9.27822 -17.5382 -6.26798
1433 2 -7.67169 -17.0597 -6.34388
1432 2 -7.49353 -19.1547 -4.54645
1430 2 -5.79374 -19.113 -6.51631
1431 2 -5.84926 -17.0937 -4.5058
2535 2 -3.78802 -19.1605 -4.42461
2536 2 -3.89229 -17.2395 -6.23035
2533 2 -2.09684 -19.1203 -6.62743
2534 2 -2.02261 -17.1588 -4.30069
3642 2 -0.372137 -16.9626 -6.62638
3641 2 -0.0611442 -18.8794 -4.89204
3639 2 1.98414 -19.1644 -6.65623
3640 2 2.13884 -17.1591 -4.83205
5623 1 3.63181 -18.6282 -6.72504
4744 2 3.9078 -17.1731 -6.60848
4743 2 3.93313 -18.9901 -4.74968
4741 2 5.94878 -19.1545 -6.47437
4742 2 5.95343 -16.851 -4.72989
5849 2 7.67495 -18.8099 -4.81115
5850 2 8.07886 -16.9042 -6.68047
5847 2 9.54403 -19.135 -6.22
5848 2 9.63687 -16.8236 -4.52982
6946 2 11.5124 -19.2091 -4.61069
6947 2 11.508 -17.0343 -6.24165
336 2 15.2915 -19.053 -4.59395
337 2 15.1412 -17.2312 -6.66199
6944 2 13.4086 -19.1717 -6.48263
6945 2 13.414 -17.2454 -4.68733
370 2 -9.91101 -15.1334 -6.3849
371 2 -9.48908 -13.1805 -4.28066
1469 2 -7.87412 -13.2616 -6.15444
1468 2 -7.71251 -15.1771 -4.37051
1466 2 -5.69385 -15.1419 -6.35184
1467 2 -5.77101 -13.1668 -4.55918
2572 2 -3.89477 -13.2979 -6.17283
2571 2 -4.01049 -15.1833 -4.45236
2577 1 -0.640608 -15.1201 -6.37221
2569 2 -2.16456 -15.0819 -6.46463
2570 2 -1.91697 -13.2024 -4.45438
3678 2 -0.096601 -13.3824 -6.24113
3677 2 -0.0815563 -15.3931 -4.67313
3675 2 1.90514 -15.2851 -6.69022
3676 2 2.01172 -13.3784 -4.58617
4782 2 3.62666 -13.1633 -6.52236
4781 2 3.81047 -15.3301 -4.65154
4779 2 5.87889 -15.1322 -6.71307
4780 2 5.5687 -13.3346 -4.64821
5885 2 7.81591 -15.1139 -4.71225
5886 2 7.88775 -13.2169 -6.56963
3683 1 7.97662 -15.2302 -6.57452
5883 2 9.8443 -14.8973 -6.70977
5884 2 9.77451 -13.1193 -4.62632
6982 2 11.4884 -15.0335 -4.50675
407 1 15.3831 -15.0787 -6.45123
372 2 15.3978 -15.3869 -4.4466
373 2 15.3316 -13.3534 -6.31579
6983 2 11.8721 -13.2693 -6.28113
6980 2 13.6588 -15.208 -6.34175
6981 2 13.5067 -13.1739 -4.3774
408 2 -9.55739 -11.4223 -6.32402
409 2 -9.55848 -9.22622 -4.40455
411 2 -11.1643 -9.22237 -6.36127
410 2 -11.4481 -11.1508 -4.64079
1506 2 -7.68293 -9.18359 -6.27612
1505 2 -7.42873 -11.1506 -4.63961
1503 2 -5.58912 -10.9917 -6.42608
1504 2 -5.51317 -9.22184 -4.40034
2608 2 -3.55148 -11.1725 -4.35786
2609 2 -3.64773 -9.11821 -6.59427
2606 2 -1.83093 -11.1473 -6.3367
2607 2 -1.75893 -9.26451 -4.49179
3715 2 -0.333395 -9.2346 -6.68688
3714 2 0.0226183 -11.2492 -4.51448
1470 1 -2.11696 -9.29574 -6.43862
3712 2 1.88506 -11.1089 -6.52004
3713 2 1.87072 -9.31824 -4.54166
4778 1 3.80168 -11.1954 -6.47024
4819 2 3.87822 -9.51565 -6.723
4818 2 3.88977 -11.2943 -4.55534
4816 2 5.55604 -11.3221 -6.75103
4817 2 6.14108 -9.38613 -4.91032
5921 2 7.54371 -11.5332 -4.73818
5965 1 9.89078 -9.40004 -6.4807
5922 2 7.86881 -9.25825 -6.73284
5919 2 9.84054 -11.2165 -6.58386
5920 2 9.56819 -9.44863 -4.80095
7018 2 11.6134 -11.0231 -4.62568
7019 2 11.5345 -9.22328 -6.6585
7016 2 13.6486 -11.1494 -6.34394
7017 2 13.6137 -9.36003 -4.40993
444 2 -9.62428 -7.17549 -6.5293
445 2 -9.37835 -5.29158 -4.55717
447 2 -11.4439 -5.2923 -6.47315
1544 2 -7.61066 -5.5047 -6.31262
1543 2 -7.41243 -7.42697 -4.39052
1541 2 -5.71351 -7.29585 -6.52314
1542 2 -5.73531 -5.42041 -4.55316
2645 2 -3.75679 -7.33834 -4.67642
2643 2 -1.97554 -7.23958 -6.63499
2644 2 -1.66364 -5.39495 -4.75687
3751 2 0.199923 -7.39747 -4.64111
3752 2 0.417077 -5.41707 -6.50342
3749 2 1.84253 -7.70446 -6.45714
3750 2 2.23862 -5.64556 -4.56192
4856 2 3.77656 -5.50875 -6.60904
4855 2 4.0953 -7.43561 -4.52713
4853 2 5.84189 -7.59115 -6.7774
4854 2 5.90248 -5.72127 -4.53991
5960 2 7.39745 -5.33722 -6.66943
5959 2 7.94118 -7.51333 -4.81533
5957 2 9.66135 -7.38075 -6.95625
5958 2 9.8827 -5.38753 -4.79906
2507 1 11.459 -7.64336 -6.49736
7055 2 11.6228 -7.52695 -4.69902
446 2 15.5464 -7.37186 -4.62367
7056 2 11.8385 -5.67787 -6.69568
7053 2 13.641 -7.41565 -6.64829
7054 2 13.3926 -5.56389 -4.57077
480 2 -9.45884 -3.71336 -6.5786
481 2 -9.54575 -1.68897 -4.94419
1580 2 -7.6842 -3.33024 -4.63626
2646 2 -3.84739 -5.19739 -6.46433
1581 2 -7.55021 -1.66944 -6.61586
1578 2 -5.59387 -3.36332 -6.2894
1579 2 -5.62395 -1.66119 -4.47315
1545 1 -3.91783 -3.69231 -6.12945
2683 2 -3.71845 -1.54891 -6.36391
2682 2 -3.41642 -3.34003 -4.50814
2680 2 -1.58638 -3.53739 -6.44054
2681 2 -1.59305 -1.50406 -4.71237
3788 2 0.365093 -3.39711 -4.80937
3789 2 0.214653 -1.61529 -6.55628
3786 2 2.28233 -3.64573 -6.51745
3787 2 2.17759 -1.70116 -4.14772
6115 1 7.78868 -3.17782 -6.12775
4892 2 4.09202 -3.54726 -4.59979
4893 2 4.04574 -1.76078 -6.44658
4890 2 5.83242 -3.36431 -6.52197
4891 2 6.02193 -1.5249 -4.58161
5997 2 7.9961 -1.65945 -6.73305
5996 2 7.87975 -3.49242 -4.5967
5994 2 10.0374 -3.51443 -6.56358
5995 2 9.83809 -1.56107 -4.51471
7091 2 11.7133 -3.48343 -4.61057
7092 2 12.1836 -1.68788 -6.34908
482 2 15.5121 -3.50849 -4.6888
483 2 15.5627 -1.66201 -6.85286
7089 2 13.751 -3.6442 -6.4333
7090 2 13.7429 -1.67404 -4.52825
521 1 -11.2817 -0.219771 -6.54436
517 2 -9.54057 0.392722 -6.65467
520 2 -11.3401 2.23627 -6.17199
519 2 -11.3725 0.272593 -4.66018
1618 2 -7.47636 2.22256 -6.48845
1617 2 -7.58081 0.217855 -4.62468
1615 2 -5.52573 0.405238 -6.29622
1616 2 -5.54374 2.14725 -4.44148
2720 2 -3.42154 2.23599 -6.54274
2719 2 -3.45212 0.259048 -4.55889
2717 2 -1.47794 0.423921 -6.39602
2718 2 -1.48962 2.0829 -4.5881
3828 2 0.258613 2.04441 -6.5358
3827 2 0.549293 0.184646 -4.44335
3825 2 2.09992 0.0805204 -6.5553
4929 2 3.96913 0.237028 -4.69556
4927 2 5.77857 0.177487 -6.58079
4928 2 5.98395 2.21745 -4.74741
6033 2 7.8136 2.03794 -6.53551
6032 2 7.92155 0.202903 -4.79201
6030 2 10.0918 0.218266 -6.30429
7127 2 11.8768 0.30724 -4.49941
7125 2 13.969 0.376768 -6.42355
7126 2 13.7598 2.09308 -4.38366
518 2 -9.35424 2.35865 -4.46343
554 2 -9.23783 4.23457 -6.30102
556 2 -11.4281 4.1788 -4.35637
1653 2 -7.44759 4.02753 -4.51244
1651 2 -5.42745 4.0779 -6.41264
4902 1 -3.7913 4.43394 -6.41741
2755 2 -3.58167 3.95093 -4.61246
2753 2 -1.79089 4.19025 -6.60384
3826 2 2.08709 2.25318 -4.84361
4966 2 3.98452 3.98337 -4.60902
4967 2 3.91716 5.76647 -6.55388
3864 2 1.83154 4.36647 -6.53785
3866 2 0.277747 4.22168 -4.62393
4930 2 4.35768 2.34412 -6.65462
4965 2 5.65564 5.9576 -4.78402
6069 2 7.84585 4.19103 -4.50604
4964 2 6.17114 4.32188 -6.82889
6031 2 9.99531 2.24058 -4.58314
6067 2 9.80733 4.02573 -6.39668
7164 2 11.8653 3.88885 -4.19171
7128 2 11.8643 2.37078 -6.50275
7165 2 11.8495 5.84109 -6.01989
7162 2 13.8369 4.18701 -6.19716
555 2 -9.41881 6.02802 -4.45894
590 2 -9.54659 8.06172 -6.53482
1690 2 -7.62891 8.02268 -4.37612
5156 1 -8.07711 8.02325 -6.26908
557 2 -11.3706 5.99061 -6.27615
592 2 -11.3431 7.83153 -4.43293
5087 1 -11.4626 7.50277 -5.96877
1654 2 -7.36396 6.12452 -6.51266
1652 2 -5.54276 6.06161 -4.41903
1688 2 -5.81459 8.15793 -6.24581
2756 2 -3.63179 6.10562 -6.60044
2792 2 -3.67182 8.14254 -4.49469
2754 2 -1.61605 6.10011 -4.65958
2790 2 -1.76788 8.13658 -6.54307
2716 1 -1.8001 6.2115 -6.57816
3867 2 -0.0824453 6.20743 -6.76744
3902 2 -0.0318008 8.15746 -4.73284
3865 2 1.98277 6.37848 -4.70133
3900 2 2.23898 8.1391 -6.36362
5004 2 4.01805 8.34223 -4.60779
5002 2 5.64856 8.06228 -6.45039
6105 2 7.67242 7.90412 -4.46185
6070 2 7.97835 6.09904 -6.40171
6068 2 9.88904 6.16575 -4.47366
6103 2 9.68574 7.96808 -6.47029
7201 2 11.7016 7.92411 -4.37153
7163 2 13.8026 6.02409 -4.16215
7199 2 13.7789 7.86163 -6.1344
591 2 -9.59811 9.75585 -4.29284
626 2 -9.42754 11.6678 -6.16922
1727 2 -7.61956 11.7576 -4.31364
1691 2 -7.71226 9.99103 -6.49666
628 2 -11.4204 11.767 -4.12753
629 2 -11.2889 13.4532 -6.38269
1725 2 -5.78069 11.6746 -6.44401
1689 2 -5.76682 9.97059 -4.31291
2793 2 -3.86122 9.7723 -6.33934
2829 2 -3.5703 11.7035 -4.52919
2827 2 -1.57249 11.91 -6.53068
2791 2 -1.9501 10.0686 -4.36403
3938 2 0.211997 11.9342 -4.58897
3903 2 0.293629 10.0656 -6.51559
2826 1 0.259719 12.0888 -6.70866
3936 2 2.38409 12.1937 -6.53598
3901 2 1.98669 9.99536 -4.39089
5041 2 3.91309 12.0601 -4.48502
5005 2 4.07961 10.2427 -6.41661
5039 2 5.86416 11.9993 -6.28975
5003 2 6.11111 10.0763 -4.39954
6143 2 7.96179 11.9787 -4.47701
6106 2 7.91504 9.79135 -6.47936
2765 1 9.3037 10.1397 -6.08727
6141 2 9.85889 11.8739 -6.2908
6104 2 9.62689 9.75263 -4.42551
7202 2 11.6485 9.93838 -6.35458
7238 2 11.6874 11.8302 -4.50419
593 2 15.5373 9.94542 -6.13199
7236 2 13.3606 11.9563 -6.45485
7200 2 13.5847 10.0197 -4.38936
662 2 -9.7321 15.6438 -6.34042
627 2 -9.56066 13.7421 -4.1857
1728 2 -7.75966 13.7789 -6.05284
1763 2 -7.74387 15.7155 -4.39093
1761 2 -5.63922 15.8828 -6.16745
1726 2 -5.76149 13.8457 -4.45056
2830 2 -4.06298 13.7246 -6.32616
2865 2 -3.79061 15.5295 -4.46894
2863 2 -1.79101 15.6901 -6.31997
2828 2 -1.77349 13.7425 -4.5808
3939 2 0.167609 13.6537 -6.62796
3975 2 0.133513 15.8213 -4.40473
3973 2 1.83863 15.8366 -6.27689
3937 2 1.83228 13.9029 -4.54463
5077 2 4.104 16.035 -4.45519
5042 2 4.29906 14.1214 -6.23355
5075 2 6.19504 16.0358 -6.26559
5040 2 5.96561 13.9792 -4.3264
6179 2 7.73044 15.9781 -4.31879
6144 2 7.73439 13.8073 -6.38753
6177 2 9.69781 15.7279 -6.2417
6142 2 9.62187 13.9156 -4.22214
7239 2 11.6034 14.0139 -6.12113
7274 2 11.6728 15.8789 -4.56132
3940 1 13.8468 13.553 -6.10405
664 2 15.5692 15.6789 -4.25394
7272 2 13.8482 15.1356 -6.4847
7237 2 13.8132 13.7068 -4.38664
698 2 -9.44352 19.3973 -6.48892
663 2 -9.46186 17.708 -4.33106
7422 1 -7.82359 19.5207 -6.55151
1764 2 -7.66535 17.6358 -6.47316
1799 2 -7.5106 19.6748 -4.60949
1797 2 -5.56751 19.4849 -6.37758
1762 2 -5.66091 17.6552 -4.37601
2866 2 -3.64942 17.7893 -6.21514
2902 2 -3.52244 19.9436 -4.58125
2900 2 -1.5878 19.8082 -6.73237
2864 2 -1.75141 17.8592 -4.69918
3976 2 -0.106679 17.8999 -6.50349
4011 2 0.149034 19.7444 -4.60934
4976 1 0.252155 20.0202 -6.61674
4009 2 2.04297 19.4931 -6.48171
3974 2 2.04432 17.7116 -4.38168
5078 2 4.06449 17.811 -6.32964
5114 2 3.98834 19.6032 -4.42619
5112 2 5.95328 19.6951 -6.35288
5076 2 5.93177 17.8301 -4.43435
6180 2 7.97201 17.916 -6.10611
6216 2 8.05885 19.9623 -4.53103
6214 2 9.93673 19.788 -6.56452
6178 2 9.62301 17.9644 -4.35662
7311 2 11.7012 19.8927 -4.36167
7178 1 11.6855 19.4658 -6.49674
7275 2 11.6091 17.7303 -6.30732
700 2 15.3615 19.6475 -4.79434
665 2 15.5517 17.841 -6.22552
7309 2 13.5255 19.7947 -6.45078
7273 2 13.344 17.877 -4.61439
734 2 -9.43446 23.505 -6.44904
699 2 -9.63503 21.536 -4.40927
1800 2 -7.66753 21.127 -6.7202
1837 2 -7.61535 23.3658 -4.67831
736 2 -11.4511 23.4938 -4.42006
1835 2 -5.86533 23.6079 -6.46882
1798 2 -5.59037 21.5579 -4.49404
2938 2 -3.77446 23.5838 -4.38452
2903 2 -3.98542 21.6214 -6.40885
2936 2 -1.64679 23.7898 -6.31201
2901 2 -1.92097 21.7815 -4.43664
4049 2 0.214319 23.5411 -4.35987
4012 2 0.231391 21.5104 -6.50221
4047 2 2.12369 23.4352 -6.10224
4010 2 2.13367 21.5153 -4.35907
5115 2 3.96086 21.6997 -6.1436
5150 2 4.1289 23.4052 -4.44124
5148 2 5.88693 23.7026 -6.43911
5113 2 5.88227 21.6535 -4.52223
6217 2 7.83675 21.4912 -6.21871
6252 2 7.88455 23.6884 -4.49613
6250 2 9.83199 23.5367 -6.60732
6215 2 9.79897 21.8288 -4.5991
701 2 15.4773 21.6797 -6.30693
7312 2 11.9159 21.6497 -6.39283
7347 2 11.8037 23.5351 -4.65884
7345 2 13.697 23.7528 -6.40073
7310 2 13.7539 21.7908 -4.38977
3063 1 15.1958 23.4136 -6.24212
771 2 -9.39322 27.3603 -6.14744
735 2 -9.51343 25.3615 -4.28337
737 2 -11.2723 25.3319 -6.4015
1838 2 -7.70803 25.4689 -6.25432
1873 2 -7.52472 27.3317 -4.27366
1871 2 -5.77061 27.4716 -5.98029
1836 2 -5.88922 25.2879 -4.38075
2975 2 -3.80421 27.4885 -4.03509
2939 2 -3.88993 25.5196 -6.01917
3053 1 -2.09385 25.3646 -5.89077
2973 2 -2.04759 27.214 -6.15713
2937 2 -1.88874 25.503 -4.23035
4085 2 -0.00131717 27.3724 -4.36237
4050 2 0.237374 25.4416 -6.32824
4083 2 1.86548 27.6738 -6.34675
4048 2 2.09858 25.3753 -4.36847
5151 2 3.89595 25.6721 -6.07289
5187 2 3.9276 27.4658 -4.45553
5185 2 5.72941 27.7577 -6.42406
5149 2 5.76446 25.528 -4.41785
6253 2 7.5773 25.8646 -6.27026
6288 2 7.62317 27.3595 -4.16651
1947 1 10.1774 25.5381 -6.31261
6286 2 9.91588 27.086 -6.36215
6251 2 9.94587 25.4726 -4.43179
773 2 15.4976 27.3156 -4.38181
7348 2 11.8172 25.5407 -6.60217
7383 2 11.8603 27.3523 -4.63295
7381 2 13.7532 27.4999 -6.56495
7346 2 13.6314 25.4147 -4.36085
1874 2 -7.7287 29.4495 -6.41722
772 2 -9.50216 29.3401 -4.46759
808 2 -9.26735 31.3211 -6.22205
1909 2 -7.71475 31.3875 -4.19845
810 2 -11.3167 31.1234 -4.42724
774 2 -11.083 29.4748 -6.59837
1872 2 -5.97951 29.547 -4.50064
1907 2 -5.88655 31.3401 -6.44174
2976 2 -3.95489 29.3355 -5.95302
3014 2 -3.79915 31.3416 -4.21246
2974 2 -1.77279 29.2513 -4.09687
3012 2 -2.01027 31.2507 -6.08861
4122 2 -0.122225 31.2959 -4.20512
4086 2 -0.0697342 29.5277 -6.04902
4084 2 1.99825 29.3934 -4.45575
4120 2 1.81733 31.2371 -6.23085
5188 2 3.69848 29.5603 -6.40112
3058 1 4.2023 31.5512 -6.15187
5224 2 4.1854 31.4004 -4.42076
5186 2 5.86783 29.4473 -4.28021
5222 2 5.7486 31.3434 -6.34941
6324 2 7.86038 31.127 -4.5692
6289 2 7.96759 29.1708 -6.25517
6287 2 9.74148 29.1331 -4.50054
6322 2 9.70927 31.1782 -6.28247
7384 2 11.7371 29.5199 -6.42425
7420 2 11.767 30.9502 -4.25888
7382 2 13.7352 29.2066 -4.63662
7418 2 13.8911 30.9857 -6.01302
811 2 -11.4516 33.0654 -6.39595
844 2 -9.40498 35.2469 -6.35776
1945 2 -7.82677 34.9448 -4.10232
809 2 -9.48378 33.2126 -4.41477
3015 2 -3.86697 33.0846 -6.27454
1943 2 -5.54651 35.0286 -6.26622
3051 2 -3.79183 34.9907 -4.17864
1908 2 -5.63367 33.1827 -4.46254
1910 2 -7.59433 33.3535 -6.3226
3013 2 -2.00618 33.0544 -4.23988
3049 2 -2.12912 35.127 -6.21967
4158 2 -0.0811955 34.9381 -4.18461
4123 2 -0.188623 33.1135 -6.09501
5225 2 3.58293 33.0231 -6.33678
4121 2 1.95267 32.9195 -4.21454
4156 2 1.81739 34.9072 -5.96727
5260 2 3.96135 35.0031 -4.30939
5223 2 5.91583 33.0122 -4.30456
5258 2 5.94552 34.8469 -6.12507
6323 2 9.71913 32.9097 -4.07455
6361 2 7.94567 34.9774 -4.23483
6359 2 10.0693 34.9785 -6.50968
6325 2 7.85101 33.2571 -6.24925
7421 2 11.7328 32.8686 -6.17217
7419 2 13.5167 33.0007 -4.39348
7459 2 11.8541 34.9204 -4.39464
846 2 15.525 34.9501 -4.50654
7457 2 13.6566 34.974 -6.2711
845 2 -9.54679 36.9696 -4.27483
847 2 -11.2816 36.9558 -6.28795
7448 1 -9.41405 36.9644 -6.32128
881 2 -9.54633 38.6987 -6.287
1983 2 -7.78908 38.9157 -4.33512
883 2 -11.4273 38.978 -4.42185
1946 2 -7.50512 36.9904 -6.4184
1944 2 -5.89748 36.9764 -4.29469
3052 2 -4.0097 37.1325 -6.07818
1981 2 -5.64417 38.986 -5.99829
3050 2 -1.90406 37.0929 -4.36964
3090 2 -3.65008 39.0268 -4.13457
3088 2 -2.11671 39.016 -6.27312
4194 2 0.0478919 38.9056 -4.24275
4159 2 0.170504 36.9049 -6.08788
4157 2 2.03114 36.9682 -4.45389
5261 2 3.81958 36.8115 -6.17191
4192 2 2.23082 38.9507 -6.15686
5296 2 3.88829 38.7191 -4.41222
5259 2 5.89224 36.7168 -4.27469
6362 2 7.81018 36.5555 -6.25321
5294 2 6.16002 38.8422 -6.30087
6360 2 9.94188 36.9718 -4.51837
6397 2 7.97241 38.7975 -4.47416
6395 2 9.47781 38.8948 -6.44899
7495 2 11.6703 39.1525 -4.30915
7460 2 11.7238 37.0272 -6.20006
7458 2 13.721 36.9185 -4.3265
7493 2 13.4703 38.8864 -6.1485
882 2 -9.45114 40.8727 -4.47211
1984 2 -7.69899 41.0065 -6.13296
884 2 -11.4043 40.8016 -6.19379
917 2 -9.66177 43.0069 -6.31425
1982 2 -5.59587 40.9981 -4.07866
3091 2 -3.88757 40.9838 -6.03125
3275 1 -7.52499 42.9321 -5.83994
2019 2 -7.58131 42.8319 -4.16167
2017 2 -5.78911 42.7253 -6.13068
3127 2 -3.74513 42.9273 -4.14788
3089 2 -1.64957 40.8368 -4.30028
4195 2 0.116673 40.5734 -6.1395
3125 2 -1.88678 42.6065 -6.00766
4193 2 1.99627 40.9155 -4.34433
4230 2 0.153161 43.0583 -4.52624
4228 2 2.02561 42.9797 -6.36012
5297 2 4.33616 40.5684 -6.3277
5295 2 5.85654 40.8215 -4.29821
6398 2 7.69447 40.8739 -6.16408
5334 2 3.98944 42.8653 -4.40966
5332 2 5.61825 42.6194 -6.34367
6434 2 7.57927 42.8138 -4.59185
6396 2 9.65158 40.7665 -4.23196
7496 2 11.1799 40.8723 -6.31225
6432 2 9.63101 42.9992 -6.32869
7531 2 11.6382 42.8663 -4.38342
7494 2 13.6257 41.0028 -4.54445
919 2 15.4711 42.9128 -4.57338
7529 2 13.4156 42.9541 -6.43477
918 2 -9.31183 44.9198 -4.15809
954 2 -9.43991 46.483 -6.36937
2020 2 -7.42183 44.5266 -6.25659
2018 2 -5.74926 44.9452 -4.17477
3128 2 -4.01687 44.7588 -6.12937
2055 2 -7.60145 46.5641 -4.49221
2053 2 -5.58886 46.6889 -6.05799
3126 2 -1.74897 44.696 -4.46533
4231 2 -0.0573407 44.797 -6.15828
3164 2 -3.60533 46.7965 -4.12112
3162 2 -2.0519 46.7118 -6.28517
4266 2 0.0227211 46.6401 -4.31308
4229 2 2.11129 44.8479 -4.36741
4264 2 2.16166 46.4897 -6.44397
5372 2 3.96597 46.6668 -4.51165
958 1 3.87367 46.5862 -6.29027
5335 2 4.05637 44.7338 -6.44132
5333 2 5.7842 44.8704 -4.61141
6435 2 7.78691 44.7827 -6.44823
5370 2 5.86409 46.7181 -6.56195
6470 2 7.62413 46.704 -4.44548
6433 2 9.55762 44.8759 -4.46989
7532 2 11.4488 44.7011 -6.2815
6468 2 9.48179 46.978 -6.11164
920 2 15.3102 44.8262 -6.32459
3129 1 13.9343 44.32 -6.06427
7530 2 13.5751 44.869 -4.53356
956 2 15.5763 46.6326 -4.29065
7567 2 11.7201 46.6367 -4.51011
7565 2 13.528 46.7012 -6.54519
955 2 -9.48198 48.5445 -4.33802
5311 1 -9.70451 48.0478 -6.12059
2056 2 -7.7246 48.4997 -6.28377
957 2 -11.2171 48.4798 -6.29885
991 2 -9.62045 50.365 -6.15447
2054 2 -5.62473 48.5632 -4.28488
2091 2 -7.48039 50.4933 -4.65589
2089 2 -5.47388 50.5877 -6.54923
3108 1 -4.00647 50.7948 -6.09027
3165 2 -3.68805 48.3813 -6.22825
3163 2 -1.6835 48.4936 -4.21532
4267 2 -0.0121668 48.4932 -6.12399
3200 2 -3.68118 50.4217 -4.40182
3198 2 -1.86559 50.5213 -6.18302
4265 2 2.2022 48.5691 -4.36391
4302 2 0.143626 50.4427 -4.36752
4300 2 2.27058 50.4655 -6.27817
5373 2 4.12781 48.5657 -6.42829
5371 2 5.81476 48.5256 -4.30059
6471 2 7.7509 48.8394 -6.37859
5409 2 4.07553 50.5689 -4.38655
5407 2 5.76478 50.4776 -6.18947
6469 2 9.78595 48.5775 -4.27716
6507 2 8.00031 50.3756 -4.21851
6505 2 9.8017 50.6024 -6.19874
7568 2 11.8645 48.9216 -6.05144
7566 2 13.7362 48.4386 -4.39064
7603 2 11.758 50.5975 -4.07383
993 2 15.5072 50.3868 -4.44245
7601 2 13.6793 50.6771 -6.32594
992 2 -9.62928 52.2147 -4.28287
2092 2 -7.64658 52.3676 -6.38003
994 2 -11.2362 52.6168 -6.21793
1028 2 -9.50318 54.2774 -6.38578
2127 2 -7.72516 54.3464 -4.55309
1030 2 -11.3921 54.3967 -4.31369
2090 2 -5.72698 52.3275 -4.33912
3201 2 -3.83551 52.5226 -6.30531
2125 2 -5.8201 54.3112 -6.33532
3199 2 -1.70631 52.3699 -4.47518
3236 2 -3.69203 54.4856 -4.53485
3234 2 -1.77584 54.3322 -6.13553
4303 2 0.43136 52.4874 -6.20098
4301 2 2.12984 52.3755 -4.46401
4336 2 2.10662 54.39 -6.37828
5410 2 4.10518 52.6482 -6.5907
5408 2 5.89992 52.567 -4.45335
6508 2 7.82837 52.106 -6.14915
3365 1 4.29517 54.2609 -6.48654
5445 2 4.07343 54.5613 -4.45197
5443 2 5.92673 54.5835 -6.31479
6543 2 7.76995 54.3208 -4.2502
6506 2 9.64349 52.4131 -4.09183
6541 2 9.70571 54.1267 -6.27432
7604 2 11.8573 52.3379 -5.9299
7602 2 13.8652 52.5875 -4.28946
7641 2 11.7596 54.2986 -4.22891
7639 2 13.8898 54.2692 -6.2769
1029 2 -9.46651 56.3386 -4.54103
1031 2 -11.3162 56.122 -6.17943
1066 2 -9.71664 58.1185 -6.50033
1 1 -5.67408 56.4397 -6.16438
2128 2 -7.3324 56.0688 -6.49888
2126 2 -5.70742 56.2795 -4.31099
3237 2 -3.98874 56.4505 -6.39309
2163 2 -7.54737 58.2307 -4.45416
3273 2 -3.77009 58.2505 -4.41595
2161 2 -5.82968 58.2458 -6.70481
3235 2 -1.79654 56.463 -4.3331
3271 2 -1.727 58.2119 -6.67163
4374 2 0.0236729 58.2374 -4.44896
4338 2 0.339003 54.6392 -4.49281
4339 2 0.173057 56.4009 -6.45152
4337 2 2.24554 56.3756 -4.49994
5446 2 3.64448 56.2733 -6.70383
4372 2 1.96839 58.2908 -6.3694
5444 2 5.80942 56.5096 -4.36702
5479 2 5.77179 58.2527 -6.48761
6544 2 8.08982 56.3222 -6.14483
6542 2 10.0053 56.1108 -4.45292
6580 2 7.92695 58.222 -4.2256
4679 1 8.32444 58.0765 -5.88961
6578 2 9.91021 58.0941 -6.1819
7642 2 11.9262 55.9531 -6.23057
7640 2 13.5191 56.3065 -4.27456
7677 2 11.7852 58.0868 -4.61315
7675 2 13.8212 58.1766 -6.26727
1067 2 -9.47888 60.1465 -4.44953
2164 2 -7.61026 60.2618 -6.45011
1069 2 -11.4586 60.2921 -6.38862
2 2 -9.52339 62.0125 -6.56445
7683 1 -11.2638 61.9578 -6.49724
2162 2 -5.61627 60.2201 -4.69524
1102 2 -5.54599 61.9152 -6.60736
1104 2 -7.48209 62.0593 -4.63659
3274 2 -3.39181 60.0969 -6.28952
3272 2 -1.83764 59.9743 -4.55755
2197 1 -1.73672 60.2725 -6.2533
2198 2 -1.6618 62.0109 -6.67355
4375 2 0.285909 60.2461 -6.47831
4373 2 2.03988 60.2038 -4.56706
5482 2 3.81027 60.1757 -6.47459
4420 1 3.85943 58.5726 -6.37711
4410 2 3.89725 62.0015 -4.39454
5481 2 3.99223 58.5458 -4.51271
5517 2 7.77861 62.014 -4.48135
5480 2 5.93877 60.293 -4.25267
6581 2 7.82033 59.8621 -6.19336
4408 2 6.01447 61.9068 -6.33949
6579 2 9.91621 60.061 -4.27661
5515 2 9.82577 61.9905 -6.36113
7678 2 11.8066 60.0993 -6.31002
1068 2 15.5394 58.5162 -4.35252
7676 2 13.6491 60.3963 -4.52013
7 2 -9.39629 -52.0022 -0.41832
9 2 -11.1644 -51.8406 -2.36464
1109 2 -7.51429 -52.0273 -2.51813
1144 2 -7.40114 -50.1619 -0.53307
1107 2 -5.55329 -51.957 -0.509972
1106 2 -5.6645 -53.7577 -2.53849
2204 2 -3.66582 -53.8244 -0.696783
2205 2 -3.70352 -51.8361 -2.57689
2203 2 -1.69256 -51.9736 -0.339208
3316 2 -0.0431778 -52.0647 -2.58646
3313 2 2.06046 -53.7806 -2.47882
3314 2 1.77565 -51.8662 -0.494916
4414 2 3.90803 -53.8109 -0.359102
4415 2 3.99572 -51.7356 -2.34529
4413 2 6.11678 -51.8318 -0.410543