ITEM: TIMESTEP
0
ITEM: NUMBER OF ATOMS
7711
ITEM: BOX BOUNDS xy xz yz pp pp pp
-1.1454338654554917e+01 1.5562492650054789e+01 -8.4553612160395222e-15
-5.3785055942856161e+01 6.2001363933855757e+01 3.7715223274669035e-15
-1.4769247199824976e+01 3.6877401195145907e+01 3.7715223274669035e-15
ITEM: ATOMS id type x y z
3 2 -9.64344 -51.8997 -4.50824
4 2 -11.3924 -53.7599 -4.43651
1104 2 -7.48384 -53.7303 -4.37193
1105 2 -7.49298 -51.7215 -6.17853
1103 2 -5.73467 -51.7086 -4.42456
2201 2 -3.88038 -51.8471 -6.39798
1102 2 -5.59996 -53.757 -6.25779
2199 2 -1.95487 -51.9291 -4.45953
3312 2 0.0190547 -51.7984 -6.37277
3311 2 -0.0297976 -53.7013 -4.33389
3310 2 1.91121 -51.9783 -4.23732
4411 2 3.7916 -51.9753 -6.46311
4448 2 3.89865 -50.1565 -4.45104
3309 2 1.85693 -53.6697 -6.30662
4446 2 5.97047 -50.1059 -6.35559
4518 1 6.1378 -51.701 -6.43759
4409 2 5.81403 -51.9452 -4.34519
5518 2 7.8262 -51.8423 -6.50694
4408 2 5.80911 -53.6568 -6.32575
5517 2 7.73257 -53.7784 -4.4866
5516 2 9.89785 -51.8079 -4.45747
5515 2 9.70201 -53.7532 -6.2166
5 2 15.3687 -51.8642 -6.37487
6617 2 11.798 -51.8834 -6.40372
6651 2 13.7201 -50.1061 -6.47372
1 1 13.7379 -51.8491 -6.4627
6615 2 13.6625 -51.8593 -4.44555
6616 2 11.7384 -53.735 -4.58652
6614 2 13.4943 -53.767 -6.52551
39 2 -9.45068 -49.9914 -6.34963
1140 2 -7.65568 -49.7331 -4.40254
5628 1 -9.066 -48.3123 -6.08758
40 2 -9.58043 -47.8867 -4.41445
1138 2 -5.61776 -49.9254 -6.32957
1141 2 -7.56573 -47.9474 -6.43809
1139 2 -5.70919 -48.0672 -4.33345
2238 2 -3.75668 -47.9171 -5.9573
2237 2 -3.58949 -50.0395 -4.236
2235 2 -1.92163 -49.705 -6.2912
3347 2 -0.022505 -50.0248 -4.47456
2236 2 -1.67658 -48.02 -4.38246
3345 2 1.87012 -50.0402 -6.15654
3348 2 0.388292 -48.0696 -6.25547
3346 2 2.03169 -48.0847 -4.36855
4449 2 3.83328 -48.045 -6.33713
5553 2 7.81989 -49.9126 -4.5145
4447 2 5.85824 -48.1071 -4.58997
5554 2 7.74386 -47.8872 -6.57138
5623 1 7.84458 -49.712 -6.07086
5551 2 9.82769 -49.8976 -6.40089
5552 2 9.78141 -47.9531 -4.54142
41 2 15.5605 -49.8011 -4.52776
6653 2 11.7432 -49.8997 -4.59454
42 2 15.5041 -48.1515 -6.61296
6654 2 11.7311 -47.9334 -6.29311
6652 2 13.5908 -47.9469 -4.38123
76 2 -9.62031 -46.1259 -6.38644
77 2 -9.56673 -44.2388 -4.5312
1178 2 -7.5444 -46.1119 -4.64038
1176 2 -5.49926 -46.0911 -6.237
2273 2 -3.74397 -45.956 -4.31797
1179 2 -7.51451 -44.1493 -6.61845
2309 1 -7.25291 -42.8387 -6.32378
1177 2 -5.82571 -44.1653 -4.56581
2271 2 -1.87253 -46.2086 -6.17942
3385 2 0.101285 -46.1532 -4.53228
2274 2 -3.59493 -44.2657 -6.37082
2272 2 -1.75221 -43.9801 -4.49096
3383 2 2.14122 -45.9528 -6.30053
4484 2 3.94698 -46.0515 -4.37232
3386 2 0.252563 -44.1819 -6.35504
3384 2 2.28002 -44.0746 -4.47731
4482 2 5.56313 -46.024 -6.48562
5589 2 7.68445 -46.2495 -4.48346
4485 2 3.98708 -43.9158 -6.36364
4483 2 5.99485 -44.2817 -4.64883
5587 2 9.7581 -46.069 -6.31701
6690 2 11.6739 -45.9071 -4.49073
5590 2 8.22017 -43.9186 -6.43834
5588 2 9.80898 -43.9966 -4.54472
78 2 15.4928 -46.1348 -4.61558
6688 2 13.5121 -45.884 -6.37634
6691 2 11.7907 -43.9828 -6.48596
79 2 15.4906 -44.0118 -6.35141
6689 2 13.5995 -43.9067 -4.5226
112 2 -9.29367 -42.3005 -6.58608
114 2 -11.3114 -42.1977 -4.43825
1214 2 -7.80756 -42.1705 -4.55727
113 2 -9.60054 -40.3539 -4.64802
1215 2 -7.68086 -40.1937 -6.5886
115 2 -11.4229 -40.6079 -6.38026
1212 2 -5.74074 -42.1814 -6.53584
2312 2 -3.91322 -42.3573 -4.64965
1213 2 -5.74147 -40.1927 -4.48259
2313 2 -3.79387 -40.406 -6.32875
2310 2 -1.69644 -42.3323 -6.47822
2311 2 -1.76358 -40.3247 -4.79893
3422 2 0.264904 -42.141 -4.53147
3420 2 1.82726 -42.2423 -6.474
3423 2 0.296493 -40.1881 -6.48962
3421 2 2.02614 -40.1909 -4.53691
4522 2 4.1439 -42.1764 -4.69643
4520 2 6.10921 -42.0809 -6.43006
4523 2 4.05551 -40.3167 -6.27879
4521 2 5.82865 -40.0311 -4.4295
5627 2 7.65609 -40.0126 -6.23236
5626 2 7.86825 -42.1206 -4.52545
5624 2 9.6829 -41.7807 -6.58908
5661 1 10.0496 -39.9515 -6.39739
5625 2 9.80703 -40.202 -4.50479
6728 2 11.6049 -40.0382 -6.48946
6727 2 11.7892 -42.054 -4.6458
6725 2 13.611 -42.0167 -6.47135
6726 2 13.6953 -40.2156 -4.52237
149 2 -9.66616 -38.441 -6.33313
1250 2 -7.86361 -38.2944 -4.58249
150 2 -9.59037 -36.3456 -4.34621
152 2 -11.2413 -36.3996 -6.38355
1248 2 -5.66614 -38.5423 -6.57717
2349 2 -3.73572 -38.415 -4.71026
1251 2 -7.53508 -36.6003 -6.26146
148 1 -5.76475 -36.2385 -6.67981
1249 2 -5.66522 -36.5379 -4.39785
2350 2 -4.26001 -36.43 -6.61709
2347 2 -1.6703 -38.253 -6.50702
3459 2 0.102178 -38.2583 -4.47136
2348 2 -1.84025 -36.4888 -4.69561
4519 1 0.425605 -38.4999 -6.22044
3457 2 1.97012 -38.3579 -6.43513
4559 2 3.97112 -38.2163 -4.51447
3460 2 0.193184 -36.3838 -6.41744
3458 2 1.84934 -36.4171 -4.45528
4560 2 3.94798 -36.2993 -6.33995
4557 2 5.82185 -38.1468 -6.28964
4558 2 5.76488 -36.1592 -4.57295
5665 2 7.75117 -36.2019 -6.18447
5664 2 7.97169 -38.3086 -4.34079
5662 2 9.69356 -38.3531 -6.57888
6763 2 11.6729 -38.245 -4.56112
5663 2 9.75883 -36.3345 -4.60203
151 2 15.4996 -38.2289 -4.43007
6761 2 13.7028 -38.2458 -6.41394
6764 2 11.7799 -36.3183 -6.23219
6762 2 13.6972 -36.5727 -4.50261
185 2 -9.46834 -34.4451 -6.38856
227 1 -9.30847 -32.8067 -6.24383
186 2 -9.4625 -32.548 -4.35436
1288 2 -7.60515 -32.508 -6.38438
188 2 -11.3622 -32.4045 -6.49044
1287 2 -7.5298 -34.4267 -4.42231
1285 2 -5.79621 -34.5607 -6.424
1286 2 -5.452 -32.4051 -4.4494
2385 2 -3.70911 -34.6405 -4.66456
2383 2 -1.71769 -34.5551 -6.59618
3495 2 -0.0478248 -34.5677 -4.51134
2386 2 -3.60401 -32.6452 -6.37435
2346 1 -1.97218 -32.9907 -6.21103
2384 2 -1.77505 -32.5286 -4.45414
3496 2 0.0881676 -32.5196 -6.33512
3493 2 2.03607 -34.4509 -6.27194
4595 2 3.90912 -34.4326 -4.3373
3494 2 2.02361 -32.5494 -4.3816
4596 2 3.8138 -32.4142 -6.26893
4593 2 5.90816 -34.3868 -6.26363
5701 2 7.83789 -34.4653 -4.29014
4594 2 5.73313 -32.5453 -4.28674
5699 2 9.83004 -34.4994 -6.22584
5702 2 7.93415 -32.5264 -6.14385
5700 2 9.82012 -32.6036 -4.31363
6801 2 11.5551 -32.5307 -6.15687
187 2 15.422 -34.7598 -4.43982
6800 2 11.7632 -34.4581 -4.3465
6798 2 13.7155 -34.4552 -6.28092
6799 2 13.8253 -32.4711 -4.41995
223 2 -9.47488 -30.7101 -6.32468
1323 2 -7.7171 -30.6716 -4.30698
225 2 -11.2266 -30.7166 -4.3255
224 2 -9.43921 -28.6898 -4.51811
1321 2 -5.6208 -30.604 -6.25649
2423 2 -3.74217 -30.446 -4.3555
1324 2 -7.54405 -28.7096 -6.22899
1322 2 -5.72514 -28.9271 -4.17288
2424 2 -3.74855 -28.5092 -6.36068
2421 2 -2.01505 -30.3759 -6.27178
3532 2 0.110507 -30.5863 -4.58462
2422 2 -1.8672 -28.5871 -4.40275
3533 2 0.0740118 -28.5604 -6.34072
3530 2 1.994 -30.5093 -6.34167
4633 2 3.74293 -30.5549 -4.42578
3566 1 3.87947 -30.6847 -6.05943
3531 2 2.03164 -28.6196 -4.27949
4631 2 5.75243 -30.7065 -6.14138
5737 2 7.77424 -30.5731 -4.38192
4634 2 4.04139 -28.6671 -6.16859
4632 2 5.88663 -28.8181 -4.43005
5738 2 7.67928 -28.7395 -6.18179
5735 2 9.8286 -30.6721 -6.13671
5736 2 9.63663 -28.7467 -4.35618
6836 2 11.7433 -30.6369 -4.28748
6834 2 13.6373 -30.6907 -6.21568
226 2 15.5552 -28.7642 -6.14902
6837 2 11.8616 -28.7704 -6.07779
6835 2 13.7911 -28.806 -4.3714
261 2 -9.59429 -26.8029 -6.33825
263 2 -11.324 -26.7552 -4.32311
262 2 -9.45824 -24.9593 -4.48419
1360 2 -7.60672 -24.7817 -6.34633
222 1 -9.09127 -24.3728 -6.09494
1359 2 -7.50446 -26.7877 -4.44702
1357 2 -5.62485 -26.8299 -6.13585
1358 2 -5.71187 -24.9068 -4.40052
2461 2 -3.74435 -24.8474 -6.22876
2460 2 -3.6666 -26.7604 -4.28198
2458 2 -1.67668 -26.8157 -6.18902
2459 2 -1.68487 -24.8478 -4.21381
3570 2 0.0186744 -24.8123 -6.13951
3569 2 0.266462 -26.7129 -4.31306
3567 2 2.14331 -26.8289 -6.13741
4670 2 3.91067 -24.7596 -6.10564
3568 2 1.94776 -24.7824 -4.25594
4669 2 4.01728 -26.7497 -4.13568
4667 2 5.80338 -26.7604 -5.94369
5774 2 7.64194 -26.9111 -4.14259
4668 2 5.93135 -24.7861 -4.36618
5772 2 9.53701 -26.7644 -6.18954
6872 2 11.6102 -26.9359 -4.14953
5773 2 9.6541 -24.9067 -4.27948
5775 2 7.88239 -24.6443 -6.0232
6870 2 13.6885 -26.7481 -6.03752
264 2 15.5507 -24.8576 -6.19708
6873 2 11.7363 -24.9377 -5.91823
6871 2 13.6646 -24.8505 -4.14584
298 2 -9.59587 -22.9767 -6.2989
299 2 -9.6628 -21.1221 -4.52633
1397 2 -7.60768 -20.9586 -6.36375
1396 2 -7.64107 -22.9292 -4.52628
1394 2 -5.59628 -22.8776 -6.01065
1395 2 -5.83587 -20.8937 -4.3986
2498 2 -3.92142 -21.0345 -6.36306
2497 2 -3.68211 -22.9637 -4.33309
2495 2 -1.87811 -22.7223 -6.28271
2496 2 -1.74264 -20.8807 -4.54152
1361 1 -2.31037 -20.5189 -6.25839
3605 2 0.0943121 -22.9071 -4.25396
3606 2 0.136912 -20.858 -6.1851
3603 2 2.17119 -22.8632 -6.0726
3604 2 2.06921 -20.9173 -4.22337
4708 2 3.99632 -20.9496 -6.16034
4707 2 4.05965 -22.9191 -4.37828
4705 2 5.90472 -22.8286 -6.1361
4706 2 5.81318 -20.9011 -4.37658
5813 2 7.82165 -20.9854 -6.27479
5812 2 7.84722 -22.7255 -4.24705
5810 2 9.91588 -22.9155 -6.26834
5811 2 9.79347 -21.0023 -4.35963
6906 1 11.5821 -22.8587 -6.26666
6910 2 11.5545 -20.9635 -6.33518
301 2 15.3365 -21.1769 -6.42353
300 2 15.3895 -22.9298 -4.41177
6909 2 11.7777 -22.8349 -4.18656
6907 2 13.286 -23.1021 -6.32268
6908 2 13.5998 -21.1339 -4.53572
334 2 -10.0815 -19.0927 -6.4054
335 2 -9.60791 -16.9918 -4.17585
1432 2 -7.80955 -18.9664 -4.43456
1433 2 -7.93432 -17.3374 -6.34012
1545 1 -9.87713 -17.1601 -6.05239
1430 2 -5.76024 -19.0296 -6.24369
1431 2 -5.53611 -17.2718 -4.47653
2536 2 -3.75487 -17.0686 -6.28851
2535 2 -3.69678 -19.143 -4.49437
2533 2 -2.13119 -19.1259 -6.64726
2534 2 -1.77733 -17.0439 -4.41747
3641 2 0.0723941 -18.9335 -4.37713
3642 2 0.192552 -17.0433 -6.19852
3639 2 2.16986 -19.1475 -6.1347
3640 2 2.09183 -17.2642 -4.42727
4744 2 3.96753 -17.218 -6.22533
4743 2 4.04556 -18.9903 -4.1807
4741 2 5.73767 -19.1053 -6.36349
4742 2 5.78058 -17.0968 -4.45981
5850 2 7.73413 -17.3651 -6.18615
5849 2 7.79454 -18.9759 -4.21574
5847 2 9.7027 -18.9993 -6.23723
5848 2 9.80099 -17.1734 -4.40757
6946 2 11.6728 -19.2124 -4.29224
336 2 15.3665 -19.084 -4.24803
6947 2 11.849 -17.2606 -6.33795
337 2 15.4091 -16.9852 -6.33949
6944 2 13.6942 -19.1772 -6.08467
6945 2 13.7014 -17.2365 -4.29984
370 2 -9.57572 -15.2509 -6.60374
371 2 -9.50507 -13.4295 -4.5127
407 1 -9.4128 -13.1567 -6.05629
1469 2 -7.65811 -13.3526 -6.29901
1468 2 -7.49117 -15.4834 -4.6121
1466 2 -5.5944 -15.4449 -6.24044
1467 2 -5.71794 -13.4055 -4.31833
2572 2 -3.83934 -13.3778 -6.09298
2571 2 -3.77611 -15.1748 -4.30183
2569 2 -1.65398 -15.2738 -6.38783
2570 2 -1.78639 -13.3372 -4.52213
3677 2 0.0820188 -15.1461 -4.33246
3678 2 0.242966 -13.2285 -6.22053
3675 2 2.3676 -15.1872 -6.1695
3676 2 2.04659 -13.4289 -4.27379
4782 2 3.95403 -12.8773 -6.27858
4781 2 4.02282 -14.9826 -4.29442
4778 1 4.01329 -14.6054 -6.26146
4779 2 5.76092 -15.1073 -6.29634
4780 2 6.00538 -13.1674 -4.34658
5886 2 7.90209 -13.3203 -6.16327
5885 2 8.07262 -15.4083 -4.49147
5883 2 9.78159 -15.3751 -6.34546
5884 2 9.82632 -13.1208 -4.41123
6982 2 11.5876 -15.0969 -4.43459
373 2 15.5286 -13.0658 -6.297
6983 2 11.7165 -13.2409 -6.2933
372 2 15.4684 -15.2548 -4.54041
6980 2 13.3447 -15.2886 -6.28572
6981 2 13.6893 -13.2652 -4.48393
408 2 -9.56778 -11.3463 -6.34121
409 2 -9.42292 -9.4664 -4.38158
1506 2 -7.50747 -9.33335 -6.21334
1505 2 -7.5445 -11.2044 -4.23027
1503 2 -5.63209 -11.2784 -6.23085
1504 2 -5.6253 -9.43137 -4.34933
2609 2 -3.92501 -9.14274 -6.53229
2608 2 -3.8034 -11.4067 -4.56241
2606 2 -1.88872 -11.3299 -6.33326
2607 2 -1.90745 -9.42378 -4.52271
1470 1 -1.66686 -9.59414 -6.51978
3714 2 0.0791175 -11.2598 -4.48255
3715 2 -0.152108 -9.38878 -6.84505
3712 2 1.81721 -11.1286 -6.19159
3713 2 2.14055 -9.40482 -4.41407
4818 2 3.98356 -11.3151 -4.35127
4819 2 4.11263 -9.37421 -6.33791
4816 2 6.08935 -11.1264 -6.29176
4817 2 5.98448 -9.31644 -4.37696
5921 2 7.91951 -11.3403 -4.4512
5922 2 8.00427 -9.36358 -6.21637
5919 2 9.93149 -11.3262 -6.30896
5920 2 9.72684 -9.30954 -4.19293
7019 2 11.5007 -9.37754 -6.39644
7018 2 11.8588 -11.2961 -4.36224
5965 1 11.7423 -10.854 -6.21922
410 2 15.4784 -11.2965 -4.3566
411 2 15.5126 -9.3831 -6.1849
7016 2 13.4347 -11.2069 -6.24404
7017 2 13.5865 -9.17526 -4.32618
444 2 -9.41873 -7.41364 -6.27426
445 2 -9.41759 -5.58354 -4.24956
1544 2 -7.71323 -5.43048 -6.09454
446 2 -11.3764 -7.61865 -4.27322
447 2 -11.1261 -5.36739 -6.06344
1543 2 -7.41675 -7.42503 -4.39836
4902 1 -3.98122 -7.56798 -6.41682
1541 2 -5.63815 -7.19806 -6.41288
1542 2 -5.41396 -5.43132 -4.27884
2645 2 -3.80052 -7.38845 -4.49456
2646 2 -3.53991 -5.43982 -6.34052
2643 2 -1.9759 -7.55264 -6.35
2644 2 -1.61818 -5.43276 -4.34393
3751 2 0.0405948 -7.60444 -4.29617
3752 2 0.372416 -5.63497 -6.32717
2577 1 2.08362 -5.76272 -6.35482
3749 2 2.18857 -7.58573 -6.28901
3750 2 2.04274 -5.57289 -4.39314
4856 2 3.73169 -5.58 -6.41058
4855 2 4.02718 -7.59685 -4.43515
4853 2 6.05141 -7.52235 -6.12908
4854 2 5.74358 -5.57967 -4.50866
5959 2 7.77368 -7.37003 -4.4016
5960 2 7.91531 -5.41872 -6.16649
5957 2 9.6545 -7.34087 -6.17121
5958 2 9.82108 -5.60367 -4.31494
7055 2 11.7649 -7.45499 -4.39538
7056 2 11.7875 -5.59163 -6.14396
7053 2 13.8459 -7.44473 -6.19182
7054 2 13.7503 -5.6311 -4.29296
480 2 -9.4721 -3.31295 -6.23045
481 2 -9.31972 -1.6604 -4.24787
482 2 -11.4078 -3.47156 -4.47183
1580 2 -7.45547 -3.56869 -4.34226
1578 2 -5.78486 -3.80622 -6.24283
1579 2 -5.66949 -1.72637 -4.24837
2683 2 -3.75103 -1.70407 -6.13742
2682 2 -3.53554 -3.69154 -4.38732
2680 2 -1.3821 -3.69324 -6.36169
2681 2 -1.70503 -1.64724 -4.58971
3788 2 0.169141 -3.52247 -4.46979
3786 2 2.07228 -3.53079 -6.25129
3787 2 2.17993 -1.50752 -4.62397
4892 2 3.95372 -3.59214 -4.54972
4893 2 3.99134 -1.66551 -6.554
4890 2 5.94076 -3.32691 -6.41239
4891 2 5.99566 -1.776 -4.40541
5996 2 7.8528 -3.59273 -4.39986
5997 2 8.02713 -1.70537 -6.29563
5994 2 9.79966 -3.5029 -6.43889
5995 2 9.81447 -1.68309 -4.43125
7091 2 11.6025 -3.74582 -4.49734
483 2 15.384 -1.70175 -6.29207
7092 2 11.7273 -1.72765 -6.3846
7089 2 13.6939 -3.79313 -6.31338
7090 2 13.5449 -1.72151 -4.49723
517 2 -9.41873 -0.00845911 -6.14947
518 2 -9.49891 2.20187 -4.50286
1581 2 -7.43692 -1.45915 -6.28418
1617 2 -7.35629 0.311736 -4.56933
1615 2 -5.39867 0.236878 -6.10814
1616 2 -5.56004 2.13564 -4.23103
2719 2 -3.62256 0.186892 -4.28188
2717 2 -1.86999 0.519708 -6.35759
2718 2 -1.84811 2.0921 -4.39234
3789 2 0.346882 -1.40986 -6.43734
3828 2 0.381904 2.09099 -6.26507
3827 2 0.173512 0.381539 -4.47481
3825 2 2.61949 0.620937 -6.44759
3826 2 2.15424 2.18381 -4.34399
4929 2 4.17461 0.215587 -4.4433
4927 2 5.93302 0.338778 -6.3867
4928 2 6.03101 2.02808 -4.17511
6033 2 7.90011 2.20467 -6.26755
6032 2 7.86424 0.184246 -4.43146
6030 2 9.594 0.30589 -6.34211
6031 2 9.70205 2.20156 -4.39445
7127 2 11.7629 0.182481 -4.43424
519 2 15.4439 0.196185 -4.53152
7125 2 13.5351 0.289632 -6.36236
554 2 -9.28619 3.86626 -6.43141
555 2 -9.62301 5.92555 -4.40555
556 2 -11.394 4.11403 -4.26815
1618 2 -7.43386 2.30171 -6.45387
2720 2 -3.86981 2.49593 -6.30568
1651 2 -5.58394 4.28404 -6.17883
1653 2 -7.5835 4.12684 -4.4592
2753 2 -1.64625 4.17221 -6.31872
2716 1 -3.18843 4.47336 -6.33175
2755 2 -3.62583 4.1469 -4.40045
3864 2 2.08597 4.1568 -6.24221
3866 2 0.286683 4.15998 -4.40492
4930 2 4.43508 2.41939 -6.25803
4966 2 4.03328 4.06448 -4.38635
4967 2 4.16201 5.96451 -6.39433
4964 2 6.19491 4.2922 -6.28812
7128 2 11.6277 2.35338 -6.12356
6069 2 7.94815 4.07087 -4.30823
6067 2 9.70568 4.10399 -6.25078
6068 2 9.74946 5.96926 -4.3587
7165 2 11.5641 5.86843 -6.26847
7164 2 11.6709 4.24552 -4.19338
520 2 15.4344 2.25571 -6.2158
7126 2 13.5781 2.34436 -4.51548
7163 2 13.5815 5.95795 -4.27632
7162 2 13.7734 4.20569 -6.41779
590 2 -9.50277 7.80767 -6.23115
1654 2 -7.67904 5.9978 -6.29812
1690 2 -7.69466 7.94769 -4.47719
592 2 -11.4192 8.00142 -4.39836
1652 2 -5.64847 6.17008 -4.43864
2792 2 -3.7665 7.96656 -4.34914
1688 2 -5.55041 7.93545 -6.27406
2756 2 -3.67674 6.0559 -6.43607
2790 2 -1.66061 7.92535 -6.27561
2754 2 -1.71935 6.10268 -4.54759
3902 2 0.205289 8.06025 -4.30442
3867 2 0.341558 6.09302 -6.26741
3900 2 2.13962 7.83879 -6.3088
3865 2 2.29847 6.10454 -4.44449
521 1 3.82351 8.00432 -6.26687
5005 2 3.79106 9.70028 -6.61905
5004 2 4.08207 7.97279 -4.53032
5002 2 5.92108 7.98984 -6.49981
4965 2 5.94143 6.00972 -4.33043
6070 2 8.05194 6.14971 -6.3995
6105 2 7.87894 7.67827 -4.47381
6103 2 9.94504 7.99574 -6.25793
7201 2 11.7814 8.02706 -4.53825
557 2 15.5144 6.05109 -6.16282
7199 2 13.6796 7.73375 -6.26698
626 2 -9.59932 11.8679 -6.51105
591 2 -9.57053 9.98658 -4.50524
1727 2 -7.62079 11.8574 -4.55588
1691 2 -7.80473 9.84443 -6.37135
1725 2 -5.80987 11.7213 -6.28345
1689 2 -5.797 9.84973 -4.47903
2829 2 -3.64474 11.8306 -4.67096
2793 2 -3.47442 9.7842 -6.3279
2827 2 -1.79196 11.8098 -6.58181
2791 2 -1.73092 9.98553 -4.49528
2826 1 -1.6441 13.4048 -6.30009
3903 2 0.247669 9.72586 -6.35321
3938 2 0.160166 11.8181 -4.58612
3936 2 2.18099 11.8177 -6.45604
3901 2 2.03284 9.87419 -4.45381
5041 2 3.96308 11.7605 -4.50229
5039 2 5.91585 11.8038 -6.36817
5003 2 6.10279 9.84888 -4.471
5156 1 5.86595 13.3718 -6.33009
6106 2 7.91311 9.84079 -6.23586
6143 2 7.85417 11.7242 -4.37682
6141 2 9.74803 11.8924 -6.37029
6104 2 9.79947 9.9707 -4.42364
593 2 15.3196 9.74181 -6.31629
7202 2 11.7608 9.98872 -6.43051
7238 2 11.7347 11.9716 -4.59752
628 2 15.4306 11.7304 -4.70285
7236 2 13.4381 11.8473 -6.47172
7200 2 13.4328 9.83362 -4.46773
662 2 -9.50468 15.6781 -6.51855
627 2 -9.56755 13.7438 -4.50441
1728 2 -7.62425 13.7114 -6.4707
1763 2 -7.60732 15.5703 -4.54172
664 2 -11.4538 15.3836 -4.60835
629 2 -11.3321 13.782 -6.45429
1761 2 -5.62306 15.5815 -6.12497
1726 2 -5.71231 13.5259 -4.4103
2830 2 -3.72793 13.8029 -6.47274
2865 2 -3.68017 15.5132 -4.51191
2863 2 -1.70408 15.4485 -6.44085
2828 2 -1.79559 13.7084 -4.46911
3939 2 0.0112948 13.7587 -6.44704
3975 2 0.213342 15.5819 -4.47582
3973 2 2.15876 15.5358 -6.07879
3937 2 1.98221 13.5088 -4.36049
5077 2 4.04649 15.4782 -4.35678
5042 2 4.05774 13.6218 -6.20926
5075 2 5.84928 15.5598 -6.52304
5040 2 6.03886 13.6717 -4.51064
6179 2 7.75102 15.6733 -4.40288
6144 2 7.92234 13.7037 -6.42084
6177 2 9.60407 15.6916 -6.37165
6142 2 9.81239 13.7011 -4.48585
7274 2 11.6932 15.7214 -4.43023
7239 2 11.6298 13.8805 -6.29512
7272 2 13.6031 15.7138 -6.31195
7237 2 13.6628 13.5678 -4.45897
698 2 -9.4026 19.6092 -6.25081
663 2 -9.52331 17.533 -4.66376
1799 2 -7.63028 19.5582 -4.4823
700 2 -11.413 19.5279 -4.56347
1764 2 -7.72852 17.6629 -6.34013
1797 2 -5.63591 19.8227 -6.29967
1762 2 -5.76937 17.5254 -4.34807
2902 2 -3.94407 19.3015 -4.486
2866 2 -3.88516 17.5107 -6.25283
2900 2 -1.97705 19.4235 -6.3036
2864 2 -1.92408 17.44 -4.4934
4011 2 0.00920397 19.4942 -4.50226
3976 2 0.100505 17.613 -6.29991
4009 2 1.97813 19.547 -6.34302
3974 2 2.03615 17.6816 -4.65639
5114 2 3.9549 19.5809 -4.46558
5078 2 4.0132 17.5039 -6.3149
5112 2 5.881 19.7212 -6.25788
5076 2 5.90583 17.5812 -4.60649
6180 2 7.71186 17.7224 -6.54403
3940 1 7.7475 19.6971 -6.1729
6216 2 7.85588 19.5244 -4.34515
6214 2 9.5885 19.5481 -6.40234
6178 2 9.55499 17.7005 -4.64557
7275 2 11.4587 17.4348 -6.3785
7311 2 11.613 19.544 -4.5384
665 2 15.5168 17.5065 -6.37748
7309 2 13.6324 19.6439 -6.49137
7273 2 13.6635 17.6456 -4.64629
734 2 -9.49028 23.4533 -6.24335
699 2 -9.5064 21.4371 -4.32762
1837 2 -7.62065 23.4704 -4.39005
701 2 -11.197 21.3644 -6.40873
1800 2 -7.5921 21.6617 -6.2693
1835 2 -5.59167 23.6324 -6.32158
1798 2 -5.46258 21.5011 -4.48564
2903 2 -3.70643 21.5013 -6.13805
2938 2 -3.55817 23.5874 -4.52127
2936 2 -1.65672 23.4578 -6.29597
2901 2 -1.7379 21.2775 -4.30132
4049 2 -0.0786193 23.4742 -4.3331
4012 2 0.0931399 21.4752 -6.20041
4047 2 1.77035 23.4231 -6.14158
4010 2 1.88961 21.3401 -4.36196
5115 2 3.80225 21.6024 -6.18938
5150 2 3.82085 23.4184 -4.4836
5148 2 5.75935 23.3444 -6.18994
5113 2 5.70947 21.3225 -4.26365
6252 2 7.70318 23.348 -4.43427
6217 2 7.67817 21.4832 -6.32637
6250 2 9.59659 23.2553 -6.39996
6215 2 9.78446 21.3798 -4.53892
7347 2 11.8132 23.2903 -4.69548
7312 2 11.7822 21.2255 -6.39549
736 2 15.5287 23.4133 -4.40679
7345 2 13.8558 23.2951 -6.46705
7310 2 13.6957 21.4807 -4.53451
771 2 -9.61066 27.4121 -6.37388
735 2 -9.42304 25.353 -4.43121
737 2 -11.3245 25.1948 -6.30849
773 2 -11.353 27.0549 -4.32307
1838 2 -7.53455 25.297 -6.33215
1873 2 -7.5857 27.4093 -4.31438
1871 2 -5.64595 27.2359 -6.3447
1836 2 -5.58185 25.4985 -4.41512
2939 2 -3.45011 25.5656 -6.5047
2975 2 -3.71307 27.3004 -4.57346
2973 2 -1.97349 27.5331 -6.34898
2937 2 -1.81719 25.5317 -4.37804
4050 2 0.113346 25.5706 -6.23884
4085 2 0.133729 27.2234 -4.44437
4083 2 1.89702 27.5533 -6.37369
4048 2 2.02805 25.3287 -4.46857
5151 2 3.91183 25.3925 -6.53811
5187 2 3.95091 27.2829 -4.62691
5185 2 5.86932 27.4726 -6.30363
5149 2 5.85492 25.3524 -4.49297
6288 2 7.72955 27.3002 -4.43205
6253 2 7.80776 25.3867 -6.24928
6286 2 9.63546 27.2095 -6.31242
6251 2 9.66725 25.2004 -4.59917
7383 2 11.6905 27.3122 -4.5157
7348 2 11.7793 25.2146 -6.18609
7381 2 13.6164 27.3537 -6.21219
7346 2 13.6005 25.2623 -4.53913
808 2 -9.42804 31.2839 -6.40025
772 2 -9.50044 29.3482 -4.61751
1947 1 -11.1957 31.145 -6.1175
1874 2 -7.40769 29.4413 -6.25256
1909 2 -7.40442 31.3034 -4.43485
1907 2 -5.56879 31.5182 -6.40689
1872 2 -5.51549 29.1966 -4.55564
2976 2 -3.83867 29.4177 -6.33035
3014 2 -3.68712 31.3643 -4.45834
3012 2 -1.9344 31.1798 -6.37477
2974 2 -1.85036 29.4841 -4.3952
4086 2 -0.0387754 29.2412 -6.13091
4084 2 2.0646 29.1728 -4.23825
4122 2 0.265136 31.1047 -4.45305
4120 2 1.94336 31.094 -6.43671
5224 2 3.94299 31.0549 -4.41068
5188 2 4.03706 29.2881 -6.339
5222 2 6.0343 31.1491 -6.3177
5186 2 5.84461 29.1868 -4.43618
6324 2 7.82596 31.2351 -4.25846
6289 2 7.98701 29.3554 -6.16311
6322 2 9.99769 31.1344 -6.3125
6287 2 9.8715 29.2855 -4.35808
7384 2 11.5679 29.2126 -6.25784
7420 2 11.6933 31.2003 -4.27377
774 2 15.3716 29.4081 -6.25549
810 2 15.427 31.1111 -4.32484
7382 2 13.6992 29.0686 -4.4556
7418 2 13.6197 31.2145 -6.403
809 2 -9.48226 33.0299 -4.34908
844 2 -9.3362 34.9189 -6.16442
846 2 -11.3331 35.0356 -4.56531
1945 2 -7.58133 35.0371 -4.31182
1943 2 -5.70039 35.0793 -6.22563
1910 2 -7.53219 33.2132 -6.3461
1908 2 -5.48154 33.1317 -4.38725
3051 2 -3.63873 35.1664 -4.43589
3049 2 -1.76108 35.002 -6.41535
3015 2 -3.68702 33.2782 -6.33991
3013 2 -1.65624 33.1006 -4.36064
4123 2 0.132304 32.815 -6.56652
4158 2 0.286524 35.0067 -4.62524
4156 2 2.19807 34.7355 -6.30611
4121 2 2.11596 33.0596 -4.43458
5225 2 4.18651 32.978 -6.35528
5260 2 4.19861 35.0172 -4.43521
5258 2 6.24445 34.952 -6.3143
5223 2 6.08321 33.0774 -4.52659
6325 2 8.11747 32.9974 -6.28315
7421 2 11.6975 32.976 -6.25062
6323 2 9.73411 33.2556 -4.45261
6361 2 7.8918 35.181 -4.36997
6359 2 9.71136 35.2191 -6.26265
7459 2 11.6921 35.2057 -4.51449
811 2 15.5342 32.9968 -6.45837
7457 2 13.626 34.9903 -6.47877
7419 2 13.6292 33.0767 -4.44604
845 2 -9.61166 37.1418 -4.62114
881 2 -9.60383 38.9359 -6.31291
1983 2 -7.62285 39.0792 -4.40954
1946 2 -7.56669 37.0577 -6.35766
1944 2 -5.56121 36.9693 -4.58707
1981 2 -5.5999 38.7881 -6.30869
3053 1 -1.23505 37.2062 -6.34559
3052 2 -3.60046 36.9355 -6.1418
3050 2 -1.4889 37.0269 -4.74559
3090 2 -3.5452 38.988 -4.40166
3088 2 -1.70696 38.7797 -6.48726
4159 2 0.387744 36.8881 -6.65254
4157 2 2.29905 36.9914 -4.65691
4194 2 0.273085 38.892 -4.6023
4192 2 2.16655 39.0553 -6.48274
5261 2 4.0473 36.9713 -6.50397
5259 2 6.02336 37.0389 -4.48313
6362 2 7.78126 37.297 -6.45462
5296 2 4.10619 38.9515 -4.72976
5294 2 5.95559 39.0412 -6.48007
6360 2 9.76619 37.0134 -4.39116
7460 2 11.6558 37.0571 -6.49834
6397 2 8.02915 39.0279 -4.55722
6395 2 9.81479 39.0531 -6.40671
847 2 15.4697 36.8837 -6.26428
7458 2 13.5126 36.913 -4.56421
7495 2 11.8616 38.9872 -4.58789
3129 1 11.7374 38.8637 -6.33764
883 2 15.433 39.0608 -4.49867
7493 2 13.6351 38.7082 -6.40361
5311 1 -9.67562 40.7442 -6.35747
882 2 -9.56107 40.9107 -4.5428
1984 2 -7.65323 40.878 -6.38371
884 2 -11.402 40.8889 -6.50886
917 2 -9.69967 42.7206 -6.57598
2019 2 -7.63643 42.869 -4.41485
1982 2 -5.62057 41.0235 -4.30418
3091 2 -3.9606 40.8952 -6.12738
2017 2 -5.62399 42.8078 -6.24383
3127 2 -3.78175 42.9335 -4.32361
3089 2 -1.67963 40.8761 -4.426
3125 2 -2.03456 42.7186 -6.1169
4195 2 0.194324 40.8521 -6.39355
4193 2 2.22657 40.833 -4.48787
4230 2 0.161296 42.8844 -4.59056
4228 2 1.88923 43.0244 -6.23895
5297 2 4.08842 40.8474 -6.53576
5295 2 5.98739 40.9888 -4.62649
5334 2 4.09716 42.7563 -4.52819
5332 2 6.21766 42.8268 -6.3485
6398 2 7.96105 40.941 -6.32861
6396 2 9.93449 40.9095 -4.59915
6434 2 7.90138 42.729 -4.43439
6432 2 9.98572 42.7824 -6.42435
7496 2 11.9028 40.777 -6.56894
7494 2 13.5785 40.8977 -4.55917
7531 2 11.8211 42.94 -4.5328
919 2 15.5619 42.8701 -4.41227
7529 2 13.9437 43.0751 -6.32648
918 2 -9.59096 44.805 -4.44352
920 2 -11.274 44.8759 -6.35894
2020 2 -7.66823 44.4674 -6.16022
954 2 -9.35086 46.554 -6.3252
956 2 -11.3919 46.7559 -4.48315
2018 2 -5.58658 44.6711 -4.37775
2055 2 -7.47881 46.5831 -4.49828
2053 2 -5.53371 46.566 -6.29453
3128 2 -3.65069 44.8959 -6.31438
3126 2 -1.76151 44.7543 -4.32104
4231 2 -0.120433 44.7133 -6.43534
3164 2 -3.65786 46.738 -4.48207
3162 2 -1.79432 46.7563 -6.53294
4229 2 2.08153 44.8551 -4.45827
4266 2 0.176134 46.6151 -4.43161
4264 2 1.9239 46.4624 -6.39192
5335 2 4.06274 44.6827 -6.37035
5333 2 6.11659 44.7323 -4.37142
5372 2 4.04998 46.517 -4.44116
5370 2 6.00315 46.5209 -6.28326
6435 2 8.03484 44.6897 -6.51291
6433 2 9.91198 44.6552 -4.78951
6470 2 8.00264 46.5072 -4.54661
6468 2 9.80963 46.5712 -6.40445
7567 2 11.6252 46.6084 -4.63578
7532 2 11.8967 44.9207 -6.61903
7530 2 13.7263 44.8583 -4.4486
7565 2 13.7557 46.7191 -6.39501
955 2 -9.35883 48.3967 -4.5212
957 2 -11.4468 48.4498 -6.47404
991 2 -9.26964 50.4994 -6.11259
993 2 -11.4131 50.3441 -4.49313
958 1 -7.65059 50.5519 -6.11705
2056 2 -7.45601 48.599 -6.29458
2054 2 -5.34125 48.5994 -4.56487
2091 2 -7.39413 50.6524 -4.30458
2089 2 -5.67987 50.5968 -6.33419
3165 2 -3.36022 48.7985 -6.43214
3163 2 -1.67954 48.5058 -4.47467
3200 2 -3.51332 50.6237 -4.41378
3198 2 -1.5848 50.5826 -6.24501
4267 2 0.250047 48.5684 -6.29794
4265 2 2.25297 48.4981 -4.40328
4302 2 0.308667 50.563 -4.41221
4300 2 2.1644 50.4116 -6.23251
5373 2 4.05201 48.2891 -6.25842
5371 2 6.09127 48.5022 -4.52159
6471 2 7.80896 48.2602 -6.2971
5409 2 4.07465 50.3057 -4.48568
5407 2 6.03732 50.3428 -6.20155
6469 2 9.75212 48.64 -4.52571
6507 2 7.95119 50.4192 -4.318
6505 2 9.89061 50.5857 -6.24869
7568 2 11.8049 48.6624 -6.30712
7566 2 13.694 48.5087 -4.21166
7603 2 11.761 50.4558 -4.26423
7601 2 13.5857 50.6535 -6.21163
992 2 -9.63599 52.4943 -4.48078
1028 2 -9.63308 54.3547 -6.40177
2127 2 -7.67355 54.2664 -4.46857
2092 2 -7.58209 52.5251 -6.42481
2090 2 -5.68193 52.4453 -4.23618
3201 2 -3.74467 52.3917 -6.37571
2125 2 -5.67675 54.2173 -6.20605
3236 2 -3.82068 54.4338 -4.32728
3199 2 -1.85229 52.4686 -4.34275
4303 2 0.0478279 52.4556 -6.32898
3234 2 -1.78461 54.3816 -6.15999
4301 2 2.07904 52.4394 -4.36071
4338 2 0.180882 54.3869 -4.39173
4336 2 2.04933 54.4186 -6.29629
5410 2 4.12496 52.2496 -6.2123
5408 2 6.11027 52.3479 -4.43422
6508 2 7.74779 52.1087 -6.53655
5445 2 4.09428 54.3552 -4.65778
5443 2 6.01191 54.2179 -6.61305
6543 2 7.70276 54.3482 -4.60691
6506 2 9.76722 52.4437 -4.50668
6541 2 9.75005 54.3032 -6.24485
994 2 15.5462 52.2511 -6.26733
7604 2 11.7045 52.3251 -6.16679
7602 2 13.6921 52.3 -4.23273
7641 2 11.7464 54.2666 -4.49942
1030 2 15.4533 54.3812 -4.42121
7639 2 13.619 54.4092 -6.16251
1029 2 -9.50919 56.3772 -4.53862
1066 2 -9.27254 58.1564 -6.44924
2128 2 -7.57881 56.1205 -6.27601
2126 2 -5.54846 56.2772 -4.37226
2163 2 -7.5185 58.1735 -4.51617
3237 2 -3.65008 56.6164 -6.23172
3235 2 -1.81019 56.3081 -4.41657
4339 2 0.0238717 56.2972 -6.36721
4374 2 0.0608223 58.1619 -4.50072
4337 2 2.06697 56.2605 -4.42299
4372 2 2.16265 57.9795 -6.36307
5446 2 4.20297 56.1791 -6.60907
3275 1 4.51554 54.6965 -6.18716
5444 2 5.83241 56.4083 -4.4139
5481 2 4.00731 58.2459 -4.44565
5479 2 5.92126 58.2076 -6.36618
6544 2 7.93868 56.2274 -6.46332
6542 2 9.76556 56.2831 -4.63081
7642 2 11.5791 56.3638 -6.41234
7683 1 11.3583 58.1224 -6.526
1031 2 15.4945 56.2987 -6.12798
7640 2 13.5251 56.2654 -4.24008
7675 2 13.7974 58.1679 -6.5078
7677 2 11.7983 58.2334 -4.70925
1068 2 -11.4057 58.3054 -4.36382
1067 2 -9.44299 60.0723 -4.41667
1069 2 -11.4309 60.1956 -6.16243
2 2 -9.45147 61.947 -6.39131
2161 2 -5.66644 58.3918 -6.46657
2164 2 -7.44103 60.1707 -6.29545
2197 1 -5.79935 60.3625 -6.28319
2162 2 -5.62382 60.1377 -4.46575
3274 2 -3.7174 60.1115 -6.23597
3273 2 -3.6443 58.3641 -4.1656
3271 2 -1.78922 58.3087 -6.39762
3272 2 -1.57436 60.1004 -4.47199
2198 2 -1.70762 61.9226 -6.30897
2200 2 -3.71179 61.9959 -4.50512
4375 2 0.239865 60.0548 -6.36711
4373 2 2.01233 59.9694 -4.48432
5482 2 3.85326 60.119 -6.43446
4410 2 3.86628 61.8858 -4.43737
5480 2 5.82877 60.2476 -4.53922
6580 2 7.76942 58.275 -4.34624
6581 2 7.82264 60.1989 -6.30746
6578 2 9.77454 58.349 -6.42225
6579 2 9.80642 60.1189 -4.51485
7678 2 11.7636 60.0056 -6.49641
7676 2 13.5306 60.1463 -4.5035
7 2 -9.76805 -52.0203 -0.45461
1144 2 -7.74373 -50.1603 -0.607167
9 2 -11.4301 -51.959 -2.53525
1108 2 -7.77625 -53.7029 -0.54091
1109 2 -7.59122 -51.9407 -2.53399
1107 2 -5.62445 -51.7253 -0.252273
2204 2 -3.74095 -53.7285 -0.385432
2205 2 -3.7319 -51.8982 -2.41909
2203 2 -1.74911 -51.8748 -0.372539
3316 2 0.0117803 -51.8573 -2.42609
3315 2 0.058861 -53.7579 -0.261296
4414 2 3.97294 -53.763 -0.371018
3314 2 2.00777 -52.0242 -0.396101
4415 2 3.9591 -51.9437 -2.47554
4412 2 5.91088 -53.7354 -2.34322
4450 2 5.72346 -50.0625 -2.50339
4413 2 5.88747 -51.7055 -0.432233
5519 2 9.79422 -53.7567 -2.76285
5522 2 7.90365 -51.9118 -2.32416
5520 2 9.69451 -51.9178 -0.435728
6621 2 11.5852 -51.7672 -2.44847
45 2 15.4219 -50.1184 -0.770503
6619 2 13.3968 -51.907 -0.555213
43 2 -9.60115 -50.0196 -2.56514
44 2 -9.76602 -48.0496 -0.653496
1145 2 -7.68741 -47.9494 -2.49902
1142 2 -5.68108 -50.018 -2.46587
2241 2 -3.92361 -49.8088 -0.541146
1143 2 -5.7984 -48.0493 -0.641983
2242 2 -3.80239 -48.1184 -2.43158
2239 2 -1.86689 -50.0483 -2.16923
2240 2 -1.69893 -47.7792 -0.565106
3352 2 0.0462744 -48.0775 -2.39452
3351 2 0.243057 -49.8607 -0.319135
3349 2 2.07771 -49.8649 -2.5564
4452 2 3.93412 -49.9225 -0.507921
3350 2 2.19361 -48.057 -0.472188
4453 2 3.93004 -47.9373 -2.81254