ITEM: TIMESTEP
0
ITEM: NUMBER OF ATOMS
7711
ITEM: BOX BOUNDS xy xz yz pp pp pp
-1.1430703945254924e+01 1.5538857940754797e+01 -8.4405674748997242e-15
-5.3683764331568774e+01 6.1900072322568370e+01 3.7649235644348551e-15
-1.4724065975299885e+01 3.6832219970620002e+01 3.7649235644348551e-15
ITEM: ATOMS id type x y z
3 2 -9.45116 -51.632 -4.82323
1 1 -8.92268 -51.7867 -6.48035
39 2 -9.32213 -50.0421 -6.97139
5 2 -11.3883 -51.8079 -6.44561
1105 2 -7.29374 -51.824 -6.83567
1103 2 -5.65249 -51.5634 -4.62646
2201 2 -3.85105 -51.8424 -6.47139
2200 2 -3.85331 -53.5929 -4.55082
1102 2 -5.6809 -53.5475 -6.59389
1104 2 -7.55584 -53.467 -4.77118
2199 2 -2.0272 -51.8434 -4.42532
2235 2 -1.92536 -49.9689 -6.33742
3312 2 0.0271881 -51.8861 -6.54533
2198 2 -1.98876 -53.6217 -6.70092
3347 2 0.140103 -49.9769 -4.67782
3310 2 2.04236 -51.6523 -4.45865
3345 2 2.34721 -50.0848 -6.48084
4410 2 3.93237 -53.484 -4.3002
3309 2 2.20552 -53.6325 -6.22882
4411 2 4.08798 -51.8586 -6.47195
5517 2 7.71988 -53.6481 -4.63947
4409 2 5.96896 -51.7927 -4.53997
5518 2 7.76451 -51.7492 -6.48314
5516 2 9.52513 -51.7953 -4.54807
6614 2 13.5644 -53.605 -6.61816
6617 2 11.9362 -51.6938 -6.55635
6615 2 13.7013 -51.5911 -4.56622
4 2 15.5148 -53.6356 -4.69235
6616 2 11.7105 -53.4257 -4.58205
1140 2 -7.62807 -49.9439 -4.78111
41 2 -11.227 -49.7889 -4.69741
40 2 -9.56384 -47.929 -4.73303
1141 2 -7.72818 -48.0746 -6.51615
42 2 -11.2352 -47.7637 -6.58396
1138 2 -5.6216 -49.5652 -6.58713
1139 2 -5.59845 -47.8707 -4.60737
2237 2 -3.57342 -49.8278 -4.49169
2238 2 -3.62683 -47.7446 -6.57416
2236 2 -1.9208 -47.7786 -4.63723
3385 2 0.169673 -46.2434 -4.68395
3348 2 0.383647 -48.121 -6.52705
3346 2 2.1326 -48.1348 -4.54113
4448 2 4.14411 -49.953 -4.55602
4446 2 6.12439 -49.6545 -6.53444
5553 2 7.73621 -49.7251 -4.67267
4449 2 4.1017 -47.8073 -6.15002
4447 2 5.8812 -47.9894 -4.36282
5551 2 9.67369 -49.8887 -6.53206
6653 2 11.6624 -49.9331 -4.47242
4518 1 8.01816 -49.6749 -6.45134
5554 2 8.03546 -47.7946 -6.70817
5552 2 9.8299 -48.0699 -4.49929
6654 2 11.553 -48.1034 -6.54835
6651 2 13.8348 -49.6735 -6.53462
5623 1 13.748 -47.5506 -6.33638
6652 2 13.7114 -47.9622 -4.53665
76 2 -9.35821 -46.0516 -6.67226
1178 2 -7.65651 -45.989 -4.79009
78 2 -11.368 -45.8967 -4.61945
77 2 -9.58559 -43.9895 -4.59836
79 2 -11.4017 -43.9278 -6.37361
1176 2 -5.52904 -45.9821 -6.59627
2273 2 -3.87568 -45.9666 -4.39195
5628 1 -3.87282 -46.1181 -6.40974
1179 2 -7.46455 -44.0361 -6.68027
1177 2 -5.85596 -44.195 -4.69698
2271 2 -1.61281 -45.9515 -6.43243
2274 2 -3.66856 -44.0895 -6.45825
2272 2 -1.87296 -44.3313 -4.41292
3386 2 0.0349993 -44.0172 -6.21466
3383 2 2.06885 -45.9739 -6.37875
3384 2 1.82841 -44.2567 -4.36377
4484 2 4.00692 -46.0335 -4.35629
4482 2 6.0295 -45.9092 -6.31587
4485 2 4.07495 -44.1203 -6.08804
4483 2 6.07099 -44.1678 -4.29416
5589 2 7.95046 -46.1741 -4.53774
5587 2 10.0339 -46.0903 -6.32298
5590 2 7.85491 -44.2902 -6.27982
5588 2 9.74017 -44.1266 -4.43543
6690 2 11.7343 -45.9957 -4.50578
6688 2 13.737 -46.0792 -6.55489
6691 2 11.6898 -44.0019 -6.3513
6689 2 13.5936 -44.0154 -4.80027
112 2 -9.48957 -42.1518 -6.69831
5661 1 -10.9682 -42.2003 -6.24134
113 2 -9.65469 -40.1035 -4.6609
1214 2 -7.55601 -42.1945 -4.57712
1212 2 -5.6818 -42.2164 -6.26452
1215 2 -7.55428 -40.1995 -6.32461
1213 2 -5.63134 -40.2334 -4.47609
2313 2 -3.76356 -40.3603 -6.25189
2312 2 -3.60259 -42.3524 -4.45795
2310 2 -1.90484 -42.2237 -6.35095
2311 2 -1.82964 -40.3295 -4.61273
3422 2 0.224658 -42.0334 -4.43667
3420 2 2.10718 -42.4181 -6.22445
4522 2 3.80846 -42.2132 -4.49036
3423 2 0.168559 -40.1951 -6.47096
3421 2 1.98203 -40.1497 -4.35933
4523 2 3.95689 -40.5175 -6.31087
4520 2 5.93013 -42.2577 -6.18416
4521 2 5.85682 -40.364 -4.38851
5627 2 7.68877 -40.3122 -6.57358
5626 2 8.0487 -42.2173 -4.37505
5624 2 9.65532 -42.1407 -6.2604
5625 2 9.80051 -40.1603 -4.68704
6728 2 11.6806 -40.0755 -6.48014
114 2 15.4802 -42.0546 -4.54839
6727 2 11.7081 -42.2127 -4.76113
6725 2 13.5881 -41.9068 -6.59638
115 2 15.4521 -40.3702 -6.54646
6726 2 13.7173 -40.112 -4.61381
149 2 -9.65336 -38.2528 -6.58614
1250 2 -7.69124 -38.2487 -4.7111
150 2 -9.48903 -36.1388 -4.87185
152 2 -11.3215 -36.2683 -6.54366
1248 2 -5.65335 -38.5175 -6.6388
2349 2 -3.80198 -38.1575 -4.58772
2309 1 -3.90447 -38.3746 -6.36079
1251 2 -7.51018 -36.264 -6.7417
1249 2 -5.92335 -36.2354 -4.70837
2350 2 -3.73877 -36.4842 -6.49609
2347 2 -1.75514 -38.3865 -6.62886
3459 2 0.0547831 -38.1731 -4.56266
2348 2 -1.8452 -36.3556 -4.76658
4519 1 0.28155 -38.4105 -6.33023
3457 2 2.16265 -38.2399 -6.50831
3460 2 0.25818 -36.5628 -6.83205
3458 2 2.08763 -36.3512 -4.85327
4559 2 4.0782 -38.428 -4.54255
4557 2 5.82709 -38.6067 -6.3841
5664 2 7.83231 -38.4062 -4.66502
4560 2 4.14075 -36.2929 -6.54864
4558 2 5.89156 -36.4181 -4.63505
5665 2 7.73277 -36.6386 -6.60951
5662 2 9.81803 -38.3123 -6.55197
6763 2 11.6185 -38.2133 -4.61946
5663 2 9.69232 -36.3868 -4.57845
6764 2 11.6738 -36.2323 -6.49976
151 2 15.5283 -38.232 -4.73231
6761 2 13.4793 -38.1794 -6.37851
6762 2 13.6235 -36.3539 -4.7827
185 2 -9.52848 -33.9908 -6.52741
1287 2 -7.68715 -34.0904 -4.69857
148 1 -8.06129 -34.1956 -6.65246
186 2 -9.66057 -32.3401 -4.55666
1285 2 -5.74524 -34.4592 -6.68314
2385 2 -3.73629 -34.5175 -4.72772
1288 2 -7.53387 -32.5594 -6.83679
1286 2 -5.67789 -32.5631 -4.54328
2386 2 -3.82615 -32.6809 -6.662
2383 2 -1.74195 -34.5171 -6.52345
2384 2 -1.65248 -32.5112 -4.78894
3495 2 0.198895 -34.5131 -5.00033
3493 2 2.19223 -34.546 -6.67915
3496 2 0.408201 -32.3869 -6.66617
3494 2 2.16335 -32.5922 -4.61673
4595 2 4.01235 -34.5399 -4.81242
4593 2 5.9202 -34.6034 -6.5539
4596 2 4.15774 -32.5731 -6.62653
4594 2 5.95353 -32.7593 -4.6787
5701 2 7.99882 -34.6424 -4.68296
5699 2 9.61402 -34.626 -6.64969
6800 2 11.5824 -34.5402 -4.60983
5702 2 7.88235 -32.6425 -6.45858
5700 2 9.82907 -32.6071 -4.48959
6801 2 11.6146 -32.5965 -6.40946
187 2 15.5049 -34.3356 -4.78718
6798 2 13.6742 -34.6147 -6.81117
188 2 15.4663 -32.2996 -6.61956
6799 2 13.6249 -32.6407 -4.75317
223 2 -9.57743 -30.4606 -6.45208
1323 2 -7.71706 -30.6642 -4.59154
224 2 -9.55392 -28.5862 -4.43151
1321 2 -5.57365 -30.7607 -6.47856
2423 2 -3.77371 -30.5485 -4.66753
1324 2 -7.4824 -28.6947 -6.428
1322 2 -5.75527 -28.8832 -4.43154
2424 2 -3.81644 -28.7306 -6.88712
2346 1 -3.61897 -30.6043 -6.46302
2421 2 -2.10435 -30.703 -6.64415
2422 2 -2.04207 -28.6278 -4.80702
3532 2 0.211713 -30.5625 -4.89145
3530 2 2.33894 -30.7681 -6.58699
3533 2 0.166951 -28.7249 -6.68118
3531 2 2.0037 -28.6159 -4.83863
4634 2 3.82922 -28.8373 -6.86233
4633 2 4.1082 -30.5869 -4.7735
3566 1 4.36058 -30.7096 -6.87527
4631 2 5.99751 -30.5842 -6.68603
5737 2 7.77271 -30.5806 -4.57126
4632 2 5.85622 -28.6089 -4.83056
5738 2 7.6681 -28.7011 -6.67517
5735 2 9.9556 -30.7582 -6.3762
5736 2 9.38006 -28.5454 -4.6024
6837 2 11.5908 -28.7916 -6.34641
225 2 15.436 -30.4686 -4.60361
227 1 11.9383 -30.4348 -6.15864
6836 2 11.8498 -30.577 -4.4852
6834 2 13.5651 -30.5547 -6.45879
226 2 15.4515 -28.7807 -6.46316
6835 2 13.6319 -28.4952 -4.44045
261 2 -9.5329 -26.6137 -6.40319
1359 2 -7.62369 -26.875 -4.58246
262 2 -9.5211 -24.8549 -4.35058
264 2 -11.4157 -24.7579 -6.24473
222 1 -9.69054 -24.7874 -6.06837
1360 2 -7.62957 -24.7554 -6.04289
1357 2 -5.81581 -26.6662 -6.34478
2460 2 -3.8386 -26.7186 -4.63857
2461 2 -3.74713 -24.4523 -6.42026
1358 2 -5.7354 -24.7019 -4.39995
2458 2 -1.95751 -26.6206 -6.5451
3569 2 0.121512 -26.8317 -4.96138
3570 2 0.0375521 -24.9504 -6.59474
2459 2 -1.81406 -24.7527 -4.66502
3567 2 2.00917 -26.7278 -6.69384
4669 2 3.79728 -26.6104 -4.66694
4670 2 3.92013 -24.8203 -6.57851
3568 2 1.96278 -24.7099 -4.82509
4667 2 5.76387 -26.716 -6.45022
5774 2 7.71753 -26.6333 -4.58289
4668 2 5.78941 -24.7661 -4.776
5775 2 7.72908 -24.6028 -6.67502
5772 2 9.45455 -26.8318 -6.47781
6872 2 11.6675 -26.7471 -4.70203
5773 2 9.65446 -24.7605 -4.66113
263 2 15.5328 -26.6308 -4.46372
6870 2 13.8519 -26.7736 -6.5161
6873 2 11.7439 -24.9829 -6.34793
6871 2 13.578 -24.6822 -4.27376
298 2 -9.33058 -22.9506 -6.31596
299 2 -9.46121 -20.762 -4.39595
301 2 -11.3379 -21.0988 -6.41777
1396 2 -7.66014 -22.8409 -4.17339
1397 2 -7.46631 -20.9391 -6.24812
1394 2 -5.71675 -22.7875 -6.26614
1395 2 -5.60722 -20.9055 -4.33661
2497 2 -3.62885 -22.8141 -4.59045
2495 2 -1.78498 -22.6781 -6.80443
2496 2 -1.72042 -21.1121 -4.59294
3605 2 -0.0181847 -22.8034 -4.7844
1361 1 -2.21873 -20.7864 -6.43818
3606 2 0.0693909 -20.7302 -6.54422
2498 2 -3.65335 -20.9284 -6.64228
3603 2 1.84451 -22.7246 -6.76097
4707 2 3.79506 -22.9801 -4.59375
4708 2 3.74734 -20.8838 -6.34354
3604 2 1.93352 -21.0622 -4.66761
4705 2 5.84098 -22.7777 -6.43398
4706 2 5.67402 -20.9359 -4.43961
5812 2 7.68819 -22.757 -4.63379
5813 2 7.75192 -20.9665 -6.68646
6906 1 8.35824 -23.1575 -6.0987
5810 2 9.90498 -23.1581 -6.79061
5811 2 9.60276 -20.9522 -4.80764
6909 2 11.6586 -22.8183 -4.61309
269 1 10.9417 -22.3608 -6.04456
300 2 15.515 -22.8229 -4.42688
6907 2 13.5439 -22.9617 -6.20338
6908 2 13.544 -20.9749 -4.5249
6910 2 11.8045 -20.939 -6.66918
334 2 -9.41599 -19.0306 -6.28554
335 2 -9.71631 -17.0465 -4.54841
1433 2 -7.64027 -16.9005 -6.39755
1432 2 -7.56033 -18.8963 -4.34457
1430 2 -5.78558 -18.8478 -6.27553
1431 2 -5.68197 -16.9877 -4.45336
2536 2 -3.85402 -17.0433 -6.22039
2535 2 -3.54929 -19.0719 -4.66236
2533 2 -1.93755 -18.9027 -6.55412
2534 2 -1.63164 -16.801 -4.60515
3641 2 0.138143 -18.9334 -4.54645
3642 2 0.221884 -16.9251 -6.5092
3639 2 2.00482 -18.9911 -6.40426
3640 2 2.20428 -17.2097 -4.64929
4743 2 3.82999 -19.1247 -4.4716
4744 2 3.98502 -17.2634 -6.4997
4741 2 5.91939 -18.98 -6.36028
4742 2 5.89864 -17.0392 -4.52677
5849 2 7.64515 -18.9484 -4.50728
5850 2 7.76151 -17.0834 -6.64588
5847 2 9.77076 -19.069 -6.54344
5848 2 9.72507 -17.0874 -4.83978
336 2 15.461 -19.0565 -4.63345
337 2 15.439 -17.0274 -6.37936
6947 2 11.7539 -17.0944 -6.52369
6946 2 11.785 -19.0602 -4.8097
6944 2 13.6961 -19.1636 -6.41808
6945 2 13.589 -17.2193 -4.6503
370 2 -9.53982 -15.1858 -6.50304
371 2 -9.55087 -13.2724 -4.59847
1468 2 -7.78725 -15.0906 -4.60687
1469 2 -7.70982 -13.1361 -6.46302
1466 2 -5.45283 -14.9507 -6.43727
1467 2 -5.70595 -13.3959 -4.33951
2571 2 -3.86322 -15.1576 -4.3835
2572 2 -3.61812 -13.3376 -6.30124
2569 2 -1.90872 -15.1681 -6.71375
2570 2 -1.66577 -13.4402 -4.67527
4778 1 -1.40414 -13.2055 -6.47701
3678 2 0.260074 -13.2715 -6.73529
3677 2 0.407532 -14.9823 -4.63349
3675 2 2.21624 -15.0596 -6.46547
3676 2 2.09584 -13.1364 -4.49595
4781 2 3.96311 -15.1164 -4.63876
4782 2 4.09371 -13.1846 -6.26044
4779 2 6.08957 -15.1709 -6.51948
4780 2 6.01579 -13.0554 -4.54012
5886 2 7.8496 -13.2405 -6.39838
5885 2 8.13855 -15.1305 -4.69279
5883 2 9.78713 -15.0488 -6.77421
5884 2 9.87837 -13.1259 -4.51815
1545 1 11.3887 -14.798 -6.28617
6983 2 11.6001 -13.2049 -6.37585
6982 2 11.5438 -15.3829 -4.6515
372 2 15.4554 -15.0577 -4.36104
373 2 15.4868 -13.3693 -6.43288
6980 2 13.5583 -15.0267 -6.43335
6981 2 13.5495 -13.3943 -4.47207
408 2 -9.44709 -11.1687 -6.58938
409 2 -9.57952 -9.2586 -4.58764
1505 2 -7.60171 -11.2919 -4.38314
1506 2 -7.74105 -9.23768 -6.38466
407 1 -7.55529 -11.5142 -5.9854
1503 2 -5.69195 -11.4366 -6.34395
1504 2 -5.79935 -9.38374 -4.53378
2609 2 -3.83906 -9.1914 -6.63965
2608 2 -3.78026 -11.3771 -4.54899
2606 2 -1.7974 -11.4348 -6.40381
2607 2 -1.96338 -9.39706 -4.58523
3714 2 -0.0394391 -11.1394 -4.57212
3715 2 -0.163045 -9.34011 -6.54341
3712 2 1.91855 -11.3129 -6.4897
3713 2 1.81877 -9.31469 -4.67049
4819 2 3.73179 -9.26264 -6.50535
4818 2 3.99689 -11.1487 -4.60938
4816 2 5.88798 -10.9861 -6.4643
4817 2 5.83578 -9.23496 -4.74828
5921 2 7.97247 -11.1086 -4.60643
5922 2 7.91546 -9.43171 -6.56708
5919 2 9.84012 -11.3442 -6.46345
5920 2 9.86453 -9.35936 -4.52067
7019 2 11.6284 -9.33357 -6.3919
7018 2 11.7901 -11.1415 -4.53257
410 2 15.5081 -11.5094 -4.46261
411 2 15.3851 -9.35115 -6.39104
5965 1 13.5962 -9.5411 -6.42058
7016 2 13.3531 -11.2467 -6.65624
7017 2 13.7429 -9.39977 -4.47919
444 2 -9.65959 -7.21095 -6.29398
445 2 -9.36587 -5.24039 -4.31091
4902 1 -9.43088 -5.26928 -6.21501
1544 2 -7.76348 -5.36952 -6.46707
1543 2 -7.72932 -7.46343 -4.23519
447 2 -11.2111 -5.24117 -6.29542
1541 2 -5.7476 -7.27152 -6.20581
1542 2 -5.77155 -5.3364 -4.3832
2645 2 -3.88869 -7.2744 -4.35676
2646 2 -3.8279 -5.62074 -6.4574
1470 1 -4.16863 -7.50493 -6.24118
2643 2 -2.05432 -7.39232 -6.62574
2644 2 -2.05606 -5.4644 -4.45825
3751 2 -0.196241 -7.33956 -4.65983
3752 2 -0.053795 -5.29393 -6.4117
3749 2 1.88762 -7.16854 -6.54479
3750 2 2.01825 -5.61962 -4.67328
4855 2 3.94946 -7.41564 -4.82201
4856 2 4.29109 -5.39911 -6.57249
2577 1 5.95624 -5.78204 -6.5043
4853 2 5.87652 -7.39482 -6.75552
4854 2 5.99818 -5.51918 -4.49081
5959 2 7.77861 -7.46161 -4.66017
5960 2 7.54379 -5.69684 -6.57876
5957 2 9.62452 -7.57702 -6.65493
5958 2 9.64043 -5.7123 -4.70295
7055 2 11.6478 -7.43752 -4.59719
7056 2 11.6642 -5.31839 -6.37376
446 2 15.4561 -7.38304 -4.47005
7053 2 13.5133 -7.23486 -6.3806
7054 2 13.6366 -5.33256 -4.38086
480 2 -9.53381 -3.47634 -6.11143
1580 2 -7.55031 -3.37156 -4.24814
1581 2 -7.48933 -1.61882 -6.24113
1578 2 -5.64876 -3.47549 -6.30722
1579 2 -5.51621 -1.54681 -4.30421
2682 2 -3.8729 -3.52786 -4.34992
2683 2 -3.67232 -1.56432 -6.3647
2680 2 -2.23787 -3.59063 -6.47184
2681 2 -1.76009 -1.68849 -4.41622
3789 2 -0.0264547 -1.76037 -6.30055
3788 2 -0.0748712 -3.66987 -4.49709
3786 2 1.98694 -3.68854 -6.26787
3787 2 2.00761 -1.86903 -4.55072
4892 2 4.11332 -3.67195 -4.78137
4893 2 4.0224 -1.776 -6.6709
4890 2 6.26112 -3.48507 -6.54262
4891 2 5.87545 -1.60527 -4.59332
5996 2 7.82683 -3.52821 -4.54505
5994 2 9.44761 -3.52714 -6.57626
5995 2 9.50767 -1.65088 -4.54313
7091 2 11.5864 -3.36389 -4.58716
482 2 15.5045 -3.47828 -4.34503
7089 2 13.7396 -3.54974 -6.23614
481 2 -9.49101 -1.47027 -4.37426
517 2 -9.51513 0.289641 -6.23904
518 2 -9.63665 2.20486 -4.21424
1617 2 -7.66454 0.424449 -4.21844
520 2 -11.3079 2.02096 -6.33041
1618 2 -7.51439 2.08582 -6.4119
1615 2 -5.65907 0.169903 -6.38169
1616 2 -5.66245 2.07526 -4.54058
2719 2 -3.69991 0.265468 -4.39429
2717 2 -1.96576 0.400896 -6.26189
2718 2 -1.84629 2.21547 -4.5083
3827 2 0.0894959 0.372835 -4.48458
3828 2 0.201928 1.92842 -6.46243
3825 2 2.01892 0.0387691 -6.48621
3826 2 2.17291 2.20635 -4.44551
4929 2 3.80024 0.0760955 -4.6587
5997 2 7.78707 -1.37488 -6.53209
4930 2 4.24523 2.22542 -6.63831
4927 2 5.76403 0.130492 -6.50189
4928 2 5.78379 2.08982 -4.61555
6033 2 7.61115 2.23746 -6.30208
6032 2 7.62024 0.27718 -4.53695
7092 2 11.5658 -1.40617 -6.38441
6030 2 9.64703 0.578759 -6.24997
6031 2 9.75878 2.14225 -4.25213
7128 2 11.4977 2.2416 -6.26204
483 2 15.4338 -1.36419 -6.0703
7090 2 13.5422 -1.46467 -4.35002
519 2 15.3878 0.427357 -4.24697
7127 2 11.688 0.36507 -4.47235
7125 2 13.4758 0.723869 -6.25486
1653 2 -7.72601 4.10532 -4.29328
554 2 -9.47315 4.01092 -6.17531
2720 2 -3.75466 2.44424 -6.43692
1651 2 -5.72304 4.1926 -6.17831
2753 2 -1.57979 4.03209 -6.63252
2716 1 -1.7597 5.79512 -6.39554
2755 2 -3.54421 4.29507 -4.51656
3864 2 2.2792 3.89477 -6.39668
3866 2 0.188689 4.15159 -4.70428
6069 2 7.64014 4.00385 -4.28248
4966 2 4.16638 4.13383 -4.48655
4964 2 5.94318 4.24065 -6.4868
521 1 4.37467 4.47497 -6.21654
6067 2 9.71372 4.01653 -6.32276
7164 2 11.5138 4.13494 -4.30829
7126 2 13.6758 2.44329 -4.37907
556 2 15.4757 4.00806 -4.44462
7163 2 13.6067 5.89771 -4.49403
7162 2 13.6802 4.15246 -6.42549
590 2 -9.41461 7.93524 -6.32096
555 2 -9.51801 5.99473 -4.38072
1654 2 -7.78532 6.00786 -6.38872
1690 2 -7.63309 7.99067 -4.33288
557 2 -11.2143 5.97777 -6.53374
1652 2 -5.64672 6.04786 -4.49883
1688 2 -5.8456 7.89021 -6.35492
2792 2 -3.87181 8.11178 -4.44791
2756 2 -3.6325 5.98456 -6.55086
2790 2 -1.74307 7.92226 -6.41132
2754 2 -1.6922 6.0189 -4.55842
3867 2 0.0948043 6.10785 -6.36861
3902 2 0.308674 7.92975 -4.56402
3865 2 2.19866 5.99897 -4.71474
3900 2 2.2963 7.96591 -6.49965
5004 2 3.97871 7.96609 -4.49611
4967 2 3.99731 6.1293 -6.69384
4965 2 5.75874 5.97773 -4.3816
6070 2 7.74614 6.06724 -6.28226
6105 2 7.69582 7.89034 -4.46064
5002 2 5.80501 7.9681 -6.22367
6068 2 9.71872 6.01574 -4.45493
6103 2 9.85422 7.79289 -6.13997
7165 2 11.5691 6.20946 -6.72484
592 2 15.5199 7.9408 -4.54555
7201 2 11.9702 7.92276 -4.64467
7199 2 13.7207 7.58988 -6.71183
7202 2 11.9394 9.65754 -6.35802
6115 1 12.1964 7.53019 -6.19085
591 2 -9.4647 9.79728 -4.31794
626 2 -9.25988 11.6227 -6.35572
628 2 -11.2888 11.6707 -4.57357
593 2 -11.0299 9.82563 -6.54475
1727 2 -7.50629 11.8814 -4.59639
1691 2 -7.43755 9.78549 -6.45469
1725 2 -5.71439 11.9098 -6.65838
1689 2 -5.74975 9.8616 -4.72777
2829 2 -3.84146 11.9374 -4.59152
2793 2 -3.61809 10.106 -6.49803
2826 1 -3.17008 11.8021 -6.56586
2827 2 -1.66556 12.0074 -6.40779
2791 2 -1.98414 9.89188 -4.55738
3938 2 0.0850988 11.7598 -4.35682
3903 2 0.0293806 9.86233 -6.20494
3936 2 1.86479 11.5298 -6.34568
3901 2 2.09869 9.78492 -4.48768
5041 2 3.92647 11.8265 -4.34515
5005 2 4.13326 10.1013 -6.2114
5039 2 6.06836 11.6362 -6.08496
5003 2 5.97931 9.70439 -4.31352
6106 2 7.97461 9.79806 -6.23073
6143 2 7.85587 11.8583 -4.34436
6141 2 9.79613 11.8559 -6.26743
6104 2 9.76336 9.80773 -4.45695
7238 2 11.8612 11.7518 -4.53653
7236 2 13.9592 11.734 -6.39764
7200 2 13.9612 9.76284 -4.636
662 2 -9.59086 15.8489 -6.32536
627 2 -9.50503 13.8261 -4.44876
629 2 -11.3947 13.8919 -6.34465
664 2 -11.3579 15.545 -4.18088
1763 2 -7.44101 15.6784 -4.61998
1728 2 -7.48874 13.7438 -6.3262
1761 2 -5.46937 15.6 -6.30349
1726 2 -5.5757 13.705 -4.42868
2865 2 -3.74681 15.7156 -4.24912
2830 2 -3.72247 13.6901 -6.48796
2863 2 -1.71456 15.4861 -6.4638
2828 2 -1.75527 13.8255 -4.45584
3975 2 -0.00823204 15.7044 -4.66256
3939 2 0.408782 13.6926 -6.47573
3973 2 2.02873 15.8014 -6.5001
3937 2 2.16299 13.6049 -4.65062
5042 2 3.97784 13.5729 -6.393
5077 2 4.00635 15.619 -4.40614
5075 2 5.73511 15.4264 -6.25353
5040 2 5.81567 13.5311 -4.35544
6144 2 7.86827 13.6098 -6.16194
6179 2 7.83985 15.5148 -4.31988
7178 1 9.66549 13.8245 -6.16378
6177 2 9.66381 15.5985 -6.32568
6142 2 9.68603 13.7461 -4.29764
7239 2 11.6145 13.7904 -6.33246
7274 2 11.4981 15.6455 -4.39559
7272 2 13.6058 15.5333 -6.01342
7237 2 13.6181 13.6325 -4.58284
698 2 -9.63646 19.3288 -6.43803
663 2 -9.54548 17.5227 -4.42326
665 2 -11.4062 17.5386 -6.23243
700 2 -11.2808 19.5644 -4.25646
7422 1 -9.05413 17.6209 -6.18519
1799 2 -7.43874 19.5029 -4.33274
1764 2 -7.43897 17.5167 -6.45062
1797 2 -5.69895 19.5623 -6.12848
1762 2 -5.58847 17.5562 -4.50804
2866 2 -3.70112 17.6631 -6.2646
2902 2 -3.69598 19.524 -4.30646
2900 2 -1.90563 19.4488 -6.29026
2864 2 -1.84248 17.4548 -4.49015
3976 2 0.0922426 17.5199 -6.56301
4011 2 0.0499704 19.5341 -4.54996
4009 2 2.13094 19.1818 -6.23539
3974 2 2.0389 17.5435 -4.48576
4976 1 2.06369 17.5132 -6.55419
5078 2 4.10356 17.4833 -6.13759
5114 2 4.05741 19.2951 -4.42005
5112 2 6.1803 19.5231 -6.42071
5076 2 5.99143 17.5007 -4.42835
6180 2 7.6344 17.4421 -6.33049
6216 2 7.894 19.6619 -4.57805
6214 2 9.56092 19.3556 -6.60416
6178 2 9.67329 17.5169 -4.56472
7311 2 11.5438 19.4659 -4.64909
7275 2 11.7179 17.6102 -6.36098
5156 1 12.0175 19.4161 -6.6172
7309 2 13.5853 19.5222 -6.50366
7273 2 13.6851 17.6872 -4.52602
734 2 -9.48814 23.233 -6.315
699 2 -9.41383 21.5178 -4.42234
1837 2 -7.63473 23.35 -4.56756
1800 2 -7.67571 21.3462 -6.24379
1835 2 -5.5903 23.227 -6.34879
1798 2 -5.84642 21.4174 -4.20167
2938 2 -3.62371 23.2642 -4.41243
2903 2 -3.56036 21.2709 -6.21063
2936 2 -1.6755 23.3914 -6.43119
2901 2 -1.68444 21.3759 -4.48072
4049 2 0.117449 23.4928 -4.37744
4012 2 0.288369 21.5778 -6.23047
4047 2 1.96639 23.4929 -6.16152
4010 2 2.08225 21.4523 -4.51617
5150 2 4.04204 23.4619 -4.38111
5115 2 3.99199 21.3293 -6.23654
5148 2 5.96983 23.4264 -6.46792
5113 2 6.02954 21.4581 -4.56256
3940 1 7.59092 23.2539 -6.62353
6217 2 7.82167 21.5786 -6.85531
6252 2 7.92444 23.348 -4.61573
6250 2 9.70607 23.3897 -6.5811
6215 2 9.6788 21.463 -4.54831
7347 2 11.4795 23.4834 -4.4748
7312 2 11.6902 21.3895 -6.53098
736 2 15.4244 23.3543 -4.51758
701 2 15.5352 21.3345 -6.39126
7345 2 13.5882 23.3143 -6.24476
7310 2 13.5566 21.4213 -4.57512
771 2 -9.38632 27.1463 -6.18181
735 2 -9.59792 25.079 -4.54253
773 2 -11.2744 27.3652 -4.57456
1838 2 -7.73063 25.3492 -6.3135
1873 2 -7.57031 27.3178 -4.23296
1871 2 -5.63303 27.3502 -6.4601
1836 2 -5.56067 25.2093 -4.64358
2975 2 -3.79059 27.0271 -4.31501
2939 2 -3.50152 25.3303 -6.35992
2973 2 -1.48206 27.2199 -6.32803
2937 2 -1.69704 25.2483 -4.48473
4050 2 0.00648865 25.369 -6.1962
4085 2 0.194166 27.2842 -4.36458
4083 2 2.11064 27.1702 -6.28627
4048 2 2.17436 25.2143 -4.28733
5187 2 3.91833 27.2019 -4.43823
5151 2 3.88286 25.3874 -6.26693
5185 2 5.95642 27.0868 -6.61767
5149 2 5.99141 25.3062 -4.63249
6288 2 7.93617 27.267 -4.51569
6253 2 7.99265 25.1765 -6.43645
6286 2 9.8728 27.4487 -6.37574
6251 2 9.81103 25.3988 -4.5018
7383 2 11.5783 27.4317 -4.43165
737 2 15.4444 25.2071 -6.23431
7348 2 11.7223 25.3959 -6.35034
7381 2 13.5742 27.3177 -6.01098
7346 2 13.5417 25.4429 -4.32988
808 2 -9.72678 31.1153 -6.15054
772 2 -9.33897 29.1415 -4.32472
774 2 -11.3364 29.1637 -6.29995
1874 2 -7.67664 29.0568 -6.25295
1909 2 -7.47722 31.076 -4.35994
1907 2 -5.66524 30.9525 -6.41535
1872 2 -5.56453 29.1021 -4.50631
2976 2 -3.53466 28.9693 -6.21191
3014 2 -3.70647 30.918 -4.38712
3012 2 -2.01728 30.884 -6.32465
2974 2 -1.75543 28.8708 -4.41551
4122 2 0.00455896 30.9706 -4.45966
4086 2 0.343017 29.1677 -6.27164
4120 2 1.9247 31.0507 -6.12883
4084 2 2.04633 29.0661 -4.26459
5188 2 3.94077 29.2529 -6.22022
5224 2 3.90583 31.1338 -4.28156
5186 2 5.79221 29.0207 -4.61034
5222 2 5.84629 30.9314 -6.40894
6289 2 7.61655 29.0002 -6.42453
6324 2 7.83382 30.9975 -4.55974
6322 2 9.72471 30.983 -6.25759
6287 2 9.62219 29.1084 -4.3723
810 2 15.3587 31.1226 -4.20957
7384 2 11.7606 29.3345 -6.37672
7420 2 11.7054 31.0786 -4.37945
7382 2 13.5958 29.2684 -4.21675
7418 2 13.5764 31.1279 -6.32649
844 2 -9.67205 34.681 -6.55511
1947 1 -11.2255 34.7608 -6.41982
1945 2 -7.70044 34.9509 -4.61539
809 2 -9.567 33.0794 -4.4637
3015 2 -3.99994 32.8183 -6.37437
3058 1 -5.62776 33.1845 -6.22474
1943 2 -5.55475 35.0528 -6.56366
3051 2 -3.74386 35.2024 -4.58493
1910 2 -7.22703 33.1158 -6.54281
1908 2 -5.57783 33.0205 -4.44271
4123 2 -0.0640914 32.9097 -6.15589
3013 2 -2.08582 32.8921 -4.40266
3049 2 -1.82502 34.8314 -6.3263
4158 2 0.110006 34.8613 -4.27539
4121 2 2.0521 32.9115 -4.37898
3053 1 0.243927 35.2794 -6.19844
4156 2 1.97552 34.7128 -6.24323
5260 2 3.94906 34.8785 -4.41001
5225 2 4.05562 32.9121 -6.24626
6325 2 7.72141 32.9141 -6.30974
5258 2 5.83648 35.0626 -6.24282
5223 2 5.88956 33.0307 -4.18416
7421 2 11.6077 32.9679 -6.33934
6323 2 9.91751 33.0542 -4.56071
6361 2 7.88065 34.7065 -4.42729
6359 2 9.78378 34.886 -6.4914
846 2 15.3058 35.0491 -4.43769
7419 2 13.6286 33.0423 -4.49761
7459 2 11.7008 34.9575 -4.4155
7457 2 13.5987 35.015 -6.38787
811 2 15.3022 33.1303 -6.39555
845 2 -9.48696 36.7748 -4.58294
847 2 -11.2004 36.7648 -6.56057
1946 2 -7.69911 36.7881 -6.76854
881 2 -9.34795 38.7146 -6.4832
883 2 -11.4261 38.8846 -4.6296
1983 2 -7.64603 38.7395 -4.61916
1944 2 -5.71346 36.787 -4.48192
3129 1 -7.47332 38.4301 -6.67662
1981 2 -5.62402 38.6874 -6.58135
3052 2 -3.65783 36.945 -6.60509
3050 2 -1.7165 36.9692 -4.54652
4159 2 0.10796 36.8671 -6.32078
3090 2 -3.69251 38.6748 -4.61355
3088 2 -1.82656 38.9644 -6.59681
4194 2 0.111635 38.8332 -4.62148
4157 2 2.04279 36.8387 -4.62648
4192 2 2.19756 38.7731 -6.40769
5296 2 3.82272 38.8647 -4.32638
5261 2 4.1039 36.8108 -6.31396
5259 2 5.92428 36.7244 -4.38853
6362 2 7.82304 36.8132 -6.27008
5294 2 5.78336 38.978 -6.14644
6360 2 9.77269 36.678 -4.42984
7460 2 11.5905 36.7621 -6.387
6397 2 7.86311 38.7539 -4.49435
6395 2 9.58233 38.6444 -6.47787
7495 2 11.6702 38.7233 -4.53094
7458 2 13.5951 36.8896 -4.68363
7493 2 13.6081 38.7836 -6.42676
882 2 -9.48966 40.7493 -4.61018
1984 2 -7.58482 40.6911 -6.71844
917 2 -9.91264 42.5616 -6.58344
2019 2 -7.73979 42.6596 -4.76768
919 2 -11.3247 42.7149 -4.56457
1982 2 -5.76293 40.5535 -4.47351
3091 2 -4.02044 40.7332 -6.42124
2017 2 -5.83492 42.6077 -6.80246
3127 2 -3.88322 42.7087 -4.68363
3089 2 -1.80271 40.784 -4.76251
4195 2 0.064731 40.5536 -6.65643
3125 2 -1.71675 42.6786 -6.36238
4193 2 2.11509 40.7138 -4.5352
4230 2 0.410399 42.6115 -4.68343
4228 2 2.17175 42.7257 -6.3842
5297 2 4.02394 40.9318 -6.33329
5295 2 5.95755 40.6193 -4.43759
6398 2 7.79905 40.6719 -6.50634
5334 2 4.04484 42.4938 -4.28079
5332 2 5.92801 42.5931 -6.23718
6434 2 7.81816 42.4524 -4.49626
6396 2 9.76732 40.4601 -4.6697
7496 2 11.6124 40.6364 -6.38735
6432 2 9.80652 42.6751 -6.36112
884 2 15.4887 40.5919 -6.69417
7494 2 13.6666 40.7987 -4.50148
5311 1 15.5209 42.3777 -6.68751
7531 2 11.7344 42.8116 -4.49131
7529 2 13.7094 42.6529 -6.46116
918 2 -9.58702 44.5993 -4.6764
2020 2 -7.66807 44.4547 -6.83913
954 2 -9.55036 46.266 -6.58801
2055 2 -7.74385 46.2299 -4.62121
2018 2 -5.81195 44.4277 -4.84519
3128 2 -3.81145 44.5375 -6.66709
2053 2 -5.95319 46.4221 -6.58777
3164 2 -3.87765 46.2231 -4.63182
3126 2 -1.88134 44.5199 -4.61774
3162 2 -1.80414 46.4399 -6.16099
4231 2 0.277508 44.4374 -6.36104
4229 2 2.33856 44.5644 -4.61091
4266 2 0.172213 46.4657 -4.39783
4264 2 2.13293 46.3786 -6.24335
5335 2 4.10233 44.6218 -6.30637
5333 2 6.02689 44.4315 -4.50064
5372 2 4.31182 46.5669 -4.40622
5370 2 6.16524 46.7078 -6.33516
6435 2 7.95627 44.5732 -6.31998
6433 2 9.68483 44.4989 -4.42589
7532 2 11.6643 44.5323 -6.4028
6470 2 7.8951 46.5281 -4.578
6468 2 9.9286 46.5368 -6.42599
7567 2 11.5366 46.48 -4.5888
920 2 15.2904 44.5724 -6.61906
7530 2 13.6721 44.5497 -4.46234
956 2 15.4273 46.4896 -4.64179
7565 2 13.2935 46.7467 -6.60268
955 2 -9.79103 48.4055 -4.6897
2056 2 -7.85129 48.477 -6.35642
991 2 -9.46768 50.4327 -6.61982
993 2 -11.3541 50.4124 -4.62358
2054 2 -5.82116 48.4361 -4.5453
3165 2 -4.03452 48.2343 -6.42635
2091 2 -7.53722 50.4238 -4.65103
2089 2 -5.54586 50.6069 -6.53435
3200 2 -3.86726 50.2505 -4.45717
3163 2 -2.01103 48.3559 -4.40254
4267 2 0.014407 48.3722 -6.30442
3198 2 -2.19729 50.041 -6.47075
3275 1 0.0701324 50.1089 -6.16982
4265 2 2.13989 48.2482 -4.43206
4302 2 0.232258 50.2938 -4.41078
4300 2 1.8602 50.1886 -6.20965
5409 2 3.95117 50.3925 -4.60898
5373 2 3.98102 48.3443 -6.2013
5371 2 5.99727 48.6641 -4.38812
5407 2 6.16017 50.3903 -6.2922
6471 2 8.07721 48.6055 -6.50514
6469 2 9.58086 48.4549 -4.44876
7568 2 11.6597 48.6316 -6.24112
6507 2 7.96823 50.6264 -4.52119
6505 2 9.82292 50.4229 -6.35754
957 2 15.4292 48.2681 -6.46008
7566 2 13.6669 48.3618 -4.50636
7603 2 11.7547 50.4165 -4.29079
7601 2 13.4629 50.3746 -6.40162
992 2 -9.44633 52.3773 -4.79908
2092 2 -7.70217 52.3445 -6.55258
994 2 -11.3935 52.2181 -6.44642
1028 2 -9.54958 54.3015 -6.4494
2127 2 -7.63128 54.1373 -4.50453
2090 2 -5.59584 52.1605 -4.5542
2125 2 -5.69162 54.1514 -6.50778
3236 2 -3.90306 54.0741 -4.59943
958 1 -4.09723 53.6968 -6.32603
3201 2 -3.59883 52.3105 -6.57915
3199 2 -1.93123 52.1412 -4.46127
4303 2 0.0381393 52.0583 -6.41022
3234 2 -1.77132 54.3867 -6.32761
4301 2 2.17694 52.3498 -4.65482
4338 2 0.187265 53.8829 -4.48509
4336 2 2.03682 54.2282 -6.46477
5445 2 3.97848 54.1259 -4.60906
5410 2 4.03796 52.1835 -6.453
5408 2 5.986 52.4932 -4.48516
6508 2 7.68501 52.4951 -6.46429
5443 2 5.71543 54.1856 -6.41911
6506 2 9.82878 52.4595 -4.51071
6543 2 7.9539 54.3338 -4.62078
6541 2 9.85381 54.0624 -6.50979
7604 2 11.8413 52.1835 -6.40564
7602 2 13.6638 52.2435 -4.57375
1030 2 15.5188 54.1128 -4.44601
7641 2 11.7232 54.2078 -4.48147
7639 2 13.7552 54.2762 -6.27449
1029 2 -9.57486 56.105 -4.49717
1066 2 -9.40374 57.9031 -6.25404
1068 2 -11.4213 58.097 -4.38695
2128 2 -7.4741 56.1901 -6.43783
2126 2 -5.65271 56.0731 -4.66539
2163 2 -7.46144 57.9255 -4.519
2161 2 -5.51857 58.0266 -6.36118
3273 2 -3.75869 58.0217 -4.48867
3237 2 -3.62285 56.2202 -6.41469
3235 2 -1.82289 56.1816 -4.527
4339 2 0.091705 56.0863 -6.3133
4337 2 1.98996 55.9258 -4.54631
5446 2 3.86759 56.0091 -6.50762
4374 2 0.199996 58.1362 -4.56319
4372 2 1.97614 57.8444 -6.36267
5481 2 3.87736 57.7859 -4.52492
5444 2 6.01036 56.0365 -4.62883
5479 2 5.76732 57.9251 -6.40202
6580 2 7.77471 58.0762 -4.67223
6544 2 8.01866 55.9952 -6.3955
6542 2 9.94256 56.1257 -4.79561
6578 2 9.72286 58.0573 -6.39653
1031 2 15.429 56.1344 -6.26677
7642 2 11.8864 56.1544 -6.62815
7640 2 13.4819 56.1804 -4.55889
7677 2 11.7542 58.1688 -4.66581
1067 2 -9.56196 60.0807 -4.54706
2164 2 -7.60297 59.9391 -6.38332
1069 2 -11.3921 59.895 -6.43614
2 2 -9.47887 61.7524 -6.5605
2162 2 -5.57584 60.1135 -4.56591
3274 2 -3.98063 60.1237 -6.37801
3271 2 -1.90535 58.3462 -6.41751
3272 2 -1.85 60.0746 -4.55418
4375 2 0.193828 60.2015 -6.50604
4373 2 2.05942 59.9817 -4.58936
2197 1 0.157828 61.8279 -6.63532
3311 2 0.193117 61.8307 -4.49173
5482 2 4.11516 60.0304 -6.31791
5480 2 5.89907 59.8923 -4.57585
6581 2 7.81096 59.9906 -6.36174
4408 2 5.87742 61.7842 -6.40023
6579 2 9.92633 60.0254 -4.6843
7678 2 11.6608 60.15 -6.71992
5515 2 9.80625 61.8521 -6.46856
7683 1 11.6634 61.673 -6.087
7675 2 13.5255 58.296 -6.45186
7676 2 13.7446 60.2367 -4.53899
7 2 -9.48235 -52.0171 -0.389819
9 2 -11.3058 -51.726 -2.52633
1109 2 -7.55913 -51.7507 -2.62329
1107 2 -5.72007 -51.6781 -0.537465
1106 2 -5.71261 -53.6408 -2.65147
2205 2 -3.71586 -51.7577 -2.43074
2203 2 -1.77626 -51.8041 -0.60325
3316 2 0.118169 -51.6276 -2.61983
2202 2 -1.6574 -53.5989 -2.53692
3314 2 1.86729 -51.9354 -0.493806
3313 2 2.04776 -53.5961 -2.60317
4415 2 4.31037 -51.8267 -2.36481
4413 2 5.99083 -51.8765 -0.354414
5522 2 7.74665 -51.9204 -2.54209
5520 2 9.64293 -51.8084 -0.647693
6621 2 11.6684 -51.83 -2.56949
6620 2 11.8573 -53.5118 -0.481548
6619 2 13.6597 -51.7078 -0.683619
6618 2 13.6358 -53.5882 -2.5307
1144 2 -7.60645 -49.8321 -0.519564
43 2 -9.41588 -49.8488 -2.54288
45 2 -11.3182 -49.9236 -0.585936
44 2 -9.28881 -47.7726 -0.870909
46 2 -11.1638 -48.0125 -2.58664
1142 2 -5.73052 -49.829 -2.34429
1145 2 -7.40575 -47.9509 -2.87364
1143 2 -5.68634 -47.8898 -0.600893
2242 2 -3.84123 -48.0264 -2.52151
2241 2 -3.70386 -49.8317 -0.493773
2239 2 -1.81038 -49.6268 -2.73242
3351 2 -0.119974 -49.6288 -0.530682