ITEM: TIMESTEP
0
ITEM: NUMBER OF ATOMS
7711
ITEM: BOX BOUNDS xy xz yz pp pp pp
-1.1437645566894862e+01 1.5545799562394734e+01 -8.4449124639719089e-15
-5.3713514138597965e+01 6.1929822129597561e+01 3.7668616511564152e-15
-1.4737335906481167e+01 3.6845489901801287e+01 3.7668616511564152e-15
ITEM: ATOMS id type x y z
3 2 -9.37488 -51.9282 -4.212
1105 2 -7.6753 -52.022 -6.5248
4 2 -11.4072 -53.6502 -4.40979
5 2 -11.2615 -51.662 -6.35051
4420 1 -5.71126 -51.9374 -6.41159
1103 2 -5.64247 -51.7481 -4.47682
1138 2 -5.70405 -50.1413 -6.46849
1102 2 -5.34606 -53.3605 -6.3773
2201 2 -3.55746 -51.7455 -6.61858
2199 2 -1.69405 -51.9992 -4.48852
2235 2 -1.70132 -50.0204 -6.33982
3312 2 0.0776371 -51.8952 -6.51404
3310 2 1.81023 -51.8631 -4.44444
4410 2 3.88667 -53.6629 -4.54431
4411 2 3.82353 -51.6904 -6.26196
4408 2 5.72324 -53.2579 -6.39072
4409 2 5.99097 -51.7295 -4.41686
4446 2 5.69486 -50.0216 -6.17238
5518 2 7.81068 -51.6853 -6.44262
5517 2 7.78046 -53.6666 -4.50339
5515 2 9.59734 -53.3813 -6.39491
5516 2 9.791 -51.5858 -4.42284
6617 2 11.7722 -51.6361 -6.38364
4518 1 12.1167 -50.0916 -6.08853
6615 2 13.7502 -51.7807 -4.46925
1140 2 -7.59835 -49.909 -4.47122
41 2 -11.3159 -49.8991 -4.34866
39 2 -9.3943 -49.7384 -6.18032
40 2 -9.55575 -47.7495 -4.4972
1141 2 -7.67183 -47.8421 -6.28532
42 2 -11.296 -47.9856 -6.43976
1139 2 -5.71933 -47.9556 -4.38297
2238 2 -3.92084 -48.1583 -6.42228
2237 2 -3.55495 -49.9634 -4.37164
3347 2 0.0672501 -49.8075 -4.5496
5628 1 -3.62812 -46.6256 -6.06079
2236 2 -1.84188 -47.891 -4.36392
3348 2 0.0306645 -47.9416 -6.31627
3345 2 1.83285 -49.8709 -6.31797
4448 2 3.84445 -49.7389 -4.60342
3346 2 1.94132 -47.9966 -4.58761
4449 2 4.04215 -47.8527 -6.47281
4447 2 5.95416 -47.9383 -4.669
5553 2 7.88689 -49.6242 -4.87893
5551 2 9.95047 -49.775 -6.61039
5554 2 7.93703 -47.9328 -6.73069
5552 2 9.76624 -47.8741 -4.66355
6653 2 11.7991 -49.9551 -4.51539
6651 2 13.8005 -49.8887 -6.4758
7683 1 15.287 -46.3929 -6.41701
6654 2 11.8277 -48.228 -6.627
6688 2 13.6848 -46.2855 -6.72039
6652 2 13.6486 -47.9595 -4.49531
76 2 -9.48928 -46.2208 -6.78115
77 2 -9.39063 -44.2734 -4.66226
79 2 -11.3769 -44.4099 -6.66879
1178 2 -7.57044 -45.9333 -4.53804
1176 2 -5.6103 -46.1318 -6.3321
1179 2 -7.53814 -44.4073 -6.60501
1177 2 -5.56318 -44.1697 -4.46935
2274 2 -3.73054 -44.266 -6.34948
2273 2 -3.69502 -46.161 -4.41155
2271 2 -1.8717 -46.1811 -6.26452
2272 2 -1.72035 -44.0554 -4.66227
3385 2 0.273791 -45.9739 -4.35833
3383 2 1.99192 -46.1478 -6.43261
4484 2 3.90591 -45.9836 -4.38629
3386 2 0.397002 -44.1628 -6.45557
3384 2 2.02813 -44.1827 -4.48169
4482 2 5.80403 -45.9002 -6.48221
4485 2 4.0245 -44.2061 -6.49201
4483 2 5.90896 -44.2144 -4.44204
5589 2 7.8657 -46.1013 -4.53518
5587 2 9.80427 -46.0568 -6.4583
6690 2 11.684 -46.2466 -4.64446
5590 2 7.92868 -44.2947 -6.53573
5588 2 9.79176 -44.3708 -4.55533
6691 2 11.5472 -44.0722 -6.54649
78 2 15.3584 -45.9784 -4.52864
6689 2 13.6244 -44.0976 -4.72855
112 2 -9.53952 -42.2523 -6.46258
114 2 -11.3736 -42.3846 -4.62422
113 2 -9.49996 -40.2915 -4.47861
115 2 -11.3725 -40.4756 -6.51435
1214 2 -7.54257 -42.4812 -4.72147
1212 2 -5.71928 -42.3651 -6.57971
1215 2 -7.37599 -40.2984 -6.30429
1213 2 -5.49848 -40.3112 -4.54483
2312 2 -3.66293 -42.243 -4.68427
2310 2 -1.41775 -42.1213 -6.74799
2313 2 -3.60063 -40.3763 -6.66473
205 1 -1.89034 -40.1867 -6.65323
2311 2 -1.78473 -40.2876 -4.56279
3423 2 -0.0263892 -40.1834 -6.55124
3422 2 0.285109 -42.1168 -4.69944
3420 2 2.29508 -42.2287 -6.41775
3421 2 2.05123 -40.3719 -4.83193
4522 2 3.99017 -42.3477 -4.59507
4520 2 5.98031 -42.4559 -6.61454
4523 2 4.21838 -40.3603 -6.53198
4521 2 5.85162 -40.4731 -4.50139
5627 2 7.61865 -40.5338 -6.15552
5626 2 8.13256 -42.3696 -4.42911
5624 2 9.70396 -42.2232 -6.41405
5625 2 9.75121 -40.0987 -4.81015
6728 2 11.6286 -40.4358 -6.40135
6727 2 11.7011 -42.2587 -4.37345
6725 2 13.4221 -42.2052 -6.48335
5661 1 14.1757 -40.5648 -6.05139
6726 2 13.6089 -40.3288 -4.59596
149 2 -9.33479 -38.5493 -6.70346
150 2 -9.89744 -36.7004 -4.94582
148 1 -10.2191 -35.7128 -6.13136
1251 2 -7.70707 -36.5328 -6.8173
1250 2 -7.48331 -38.1643 -4.66727
51 1 -7.48629 -38.186 -6.66626
1248 2 -5.82655 -38.2184 -6.73201
2349 2 -3.82908 -38.2626 -4.82999
1249 2 -5.44283 -36.3665 -4.72912
2347 2 -1.71956 -38.3248 -6.57984
2350 2 -3.66992 -36.4189 -6.73936
2348 2 -1.78176 -36.4456 -4.68052
3459 2 0.335103 -38.5248 -4.68492
3457 2 2.5353 -38.5052 -6.75078
3460 2 0.17672 -36.6967 -6.58964
3458 2 2.35178 -36.3275 -4.75953
7609 1 4.34174 -38.4298 -6.2287
4559 2 4.14103 -38.3936 -4.56098
4557 2 5.97757 -38.3192 -6.53773
5664 2 7.75108 -38.3687 -4.63408
4560 2 4.35008 -36.4292 -6.47404
4558 2 6.06517 -36.3525 -4.4644
5662 2 9.55554 -38.1799 -6.47979
5665 2 7.87556 -36.2199 -6.50046
5663 2 9.65247 -36.4113 -4.5647
151 2 15.325 -38.448 -4.67771
6763 2 11.7636 -38.3815 -4.69486
6761 2 13.2958 -38.3123 -6.68293
5623 1 13.5382 -36.8732 -6.21655
152 2 15.421 -36.4633 -6.75665
6764 2 11.7231 -36.3908 -6.65442
6762 2 13.6668 -36.419 -4.46404
185 2 -9.54019 -34.4328 -6.49977
187 2 -11.2985 -34.5442 -4.55991
1287 2 -7.74876 -34.6317 -4.46007
186 2 -9.50076 -32.6207 -4.68302
1285 2 -5.63315 -34.383 -6.59174
2309 1 -3.78611 -34.1138 -6.33407
2385 2 -3.76278 -34.5028 -4.47637
1288 2 -7.41788 -32.6773 -6.435
1286 2 -5.5406 -32.4702 -4.6185
2383 2 -1.83943 -34.4113 -6.48136
2386 2 -3.68777 -32.6091 -6.52055
2384 2 -1.67347 -32.5326 -4.44109
4519 1 2.04638 -32.6297 -6.07785
3495 2 0.254435 -34.613 -4.55934
3493 2 2.1445 -34.2861 -6.32765
3496 2 0.282928 -32.5644 -6.30005
3494 2 2.21366 -32.3683 -4.50008
4595 2 4.05179 -34.3166 -4.68424
4593 2 5.96412 -34.2126 -6.64625
4596 2 3.98371 -32.4161 -6.71803
4594 2 6.01545 -32.3741 -4.45265
5701 2 7.83971 -34.2578 -4.63513
5699 2 9.69621 -34.523 -6.57679
6800 2 11.663 -34.6452 -4.59897
5702 2 8.06457 -32.5252 -6.52649
5700 2 9.77329 -32.7658 -4.54194
6798 2 13.6714 -34.6846 -6.42869
188 2 15.3465 -32.4692 -6.54246
6801 2 11.7346 -32.3248 -6.79637
6799 2 13.4404 -32.7205 -4.68374
223 2 -9.06225 -30.6579 -6.69429
225 2 -11.2715 -30.6738 -4.69029
224 2 -9.42234 -28.4164 -4.50398
1324 2 -7.74569 -28.541 -6.60733
1323 2 -7.48738 -30.5852 -4.56174
2346 1 -7.46232 -30.945 -6.31935
1321 2 -5.6302 -30.3706 -6.4738
1322 2 -5.65938 -28.4307 -4.49927
2423 2 -3.69639 -30.4491 -4.38639
2421 2 -1.92332 -30.6008 -6.22936
3532 2 0.1178 -30.6464 -4.51588
2424 2 -3.72084 -28.5352 -6.10729
2422 2 -1.63445 -28.7397 -4.25867
3533 2 -0.0630554 -28.4119 -6.24666
3530 2 2.01646 -30.5715 -6.48562
4633 2 3.97707 -30.4958 -4.69253
3531 2 2.19027 -28.7704 -4.54236
4631 2 5.98006 -30.5711 -6.26999
4634 2 4.02669 -28.49 -6.45115
4632 2 6.01456 -28.5213 -4.51628
5737 2 8.07346 -30.5234 -4.66859
5735 2 9.84607 -30.5677 -6.81365
227 1 11.4351 -30.8657 -6.58698
6836 2 11.6416 -30.9026 -4.53918
5738 2 8.12118 -28.5595 -6.06514
5736 2 10.1306 -28.7237 -4.66675
6834 2 13.4682 -30.6291 -6.68703
6837 2 12.052 -28.5858 -6.53584
226 2 15.4032 -28.8083 -6.47403
6835 2 13.51 -28.8414 -4.48564
261 2 -9.50985 -26.5287 -6.53198
222 1 -11.0193 -27.3979 -6.11979
263 2 -11.4374 -26.7423 -4.67677
1361 1 -7.66411 -26.6204 -6.36738
262 2 -9.51826 -24.6449 -4.56808
1359 2 -7.56767 -26.5438 -4.60793
1357 2 -5.80868 -26.7378 -6.51895
2460 2 -3.95081 -26.5729 -4.34024
1358 2 -5.68742 -24.6554 -4.40323
2461 2 -3.78509 -24.6986 -6.33948
1360 2 -7.31425 -24.7765 -6.37611
2458 2 -1.86328 -26.6557 -6.2377
2459 2 -1.76632 -24.793 -4.54602
3569 2 0.186487 -26.7708 -4.21613
3567 2 2.31107 -26.7478 -6.3256
4669 2 3.93038 -26.8362 -4.53405
3570 2 0.34101 -25.0939 -6.10899
3568 2 2.27656 -24.8047 -4.49454
4667 2 6.15529 -26.5623 -6.35323
4670 2 4.11038 -25.0792 -6.32786
4668 2 5.87743 -24.7494 -4.41508
3566 1 9.83325 -24.8839 -6.4287
5774 2 8.01745 -26.6376 -4.4219
5772 2 9.89585 -26.593 -6.66515
5775 2 7.97282 -24.9102 -6.59574
5773 2 9.97196 -24.7797 -4.55027
6872 2 11.7193 -26.8179 -4.7196
6870 2 13.7404 -26.6925 -6.4154
6873 2 11.7076 -24.7611 -6.53615
6871 2 13.4974 -24.7841 -4.46947
264 2 15.5008 -24.7304 -6.48431
298 2 -9.65734 -22.7226 -6.57841
299 2 -9.6719 -20.9772 -4.54719
1396 2 -7.59605 -22.8086 -4.61924
1397 2 -7.61765 -21.0722 -6.48945
269 1 -11.311 -22.5488 -6.11191
1394 2 -5.67823 -22.695 -6.52651
1395 2 -5.5662 -21.0109 -4.57618
407 1 -5.40382 -20.8617 -6.18565
2498 2 -3.62588 -20.7717 -6.46697
2497 2 -3.58766 -22.8377 -4.57882
2495 2 -1.63446 -22.8095 -6.23063
2496 2 -1.71681 -20.9304 -4.51202
3605 2 0.220401 -22.9259 -4.48084
3603 2 2.40217 -22.9439 -6.26696
3604 2 2.02901 -20.9539 -4.38124
3606 2 0.171588 -20.9536 -6.31402
4708 2 4.04978 -20.9506 -6.30513
4707 2 4.02427 -22.8264 -4.39726
4705 2 5.79055 -22.8739 -6.46652
4706 2 6.07336 -20.8488 -4.61223
6906 1 6.39724 -21.5636 -6.33059
5813 2 7.87634 -20.9043 -6.38697
5812 2 8.03891 -22.9975 -4.39207
5810 2 9.8232 -23.1369 -6.63631
5811 2 9.65151 -20.8481 -4.54076
6910 2 11.6041 -21.1435 -6.19907
6909 2 11.5936 -22.8743 -4.28813
300 2 15.4452 -23.0235 -4.27384
301 2 15.4024 -20.97 -6.47622
6907 2 13.7297 -22.8113 -6.45843
6908 2 13.4242 -21.0275 -4.36018
334 2 -9.22302 -18.9224 -6.51801
335 2 -9.49031 -17.1795 -4.52148
1433 2 -7.39578 -17.1676 -6.24291
1432 2 -7.4884 -19.3084 -4.55619
1430 2 -5.65097 -19.2844 -6.85157
1431 2 -5.62658 -17.0826 -4.38608
2536 2 -3.91686 -17.2814 -6.53072
2535 2 -3.77334 -19.0886 -4.23449
2533 2 -1.75233 -19.0572 -6.48927
2534 2 -1.58612 -17.2177 -4.57751
3641 2 0.116152 -18.9824 -4.56461
3642 2 0.132843 -17.1762 -6.59764
3639 2 2.11465 -19.145 -6.56836
3640 2 2.07 -17.0455 -4.79766
4743 2 3.98037 -19.0504 -4.71557
4744 2 4.01131 -17.1264 -6.9049
4741 2 6.01021 -19.2148 -6.60076
4742 2 5.81674 -17.1277 -4.83287
3683 1 5.49332 -16.7242 -6.52244
5849 2 7.8275 -18.8322 -4.76953
5850 2 7.70041 -17.0741 -6.68809
5847 2 9.84075 -18.9759 -6.43201
5848 2 9.84778 -17.1012 -4.65655
6946 2 11.674 -19.1573 -4.51097
337 2 15.4721 -16.9477 -6.4094
336 2 15.517 -18.9596 -4.68973
6947 2 12.0339 -17.2738 -6.41372
6944 2 13.5504 -19.0653 -6.5578
6945 2 13.6905 -17.1529 -4.53284
370 2 -9.5006 -15.267 -6.22995
371 2 -9.73267 -13.2264 -4.39944
2507 1 -9.80621 -13.5608 -6.11979
1469 2 -7.97127 -13.1904 -6.20122
373 2 -11.3788 -13.1247 -6.59904
1468 2 -7.4168 -15.1015 -4.51499
1466 2 -5.4288 -15.1461 -6.32555
1467 2 -5.58733 -13.2798 -4.5406
2571 2 -3.81321 -15.4814 -4.5131
2572 2 -3.54122 -13.3797 -6.52088
2569 2 -1.85037 -15.0924 -6.61633
2570 2 -1.80188 -13.3486 -4.47116
1470 1 -1.59702 -13.1046 -6.4704
3678 2 0.106258 -12.9874 -6.56878
3677 2 0.0765152 -15.1445 -4.8295
3675 2 2.02086 -14.9582 -6.69039
3676 2 2.03588 -13.178 -4.64678
4778 1 2.29464 -12.8642 -6.33413
4781 2 3.91354 -15.1491 -4.78063
4782 2 4.09621 -12.9878 -6.73997
4779 2 5.87049 -15.115 -6.66442
4780 2 6.10653 -13.0545 -4.69543
5885 2 7.7723 -15.1737 -4.79542
5886 2 7.8401 -13.2457 -6.57574
5883 2 9.85836 -15.2554 -6.3106
5884 2 9.88393 -13.2581 -4.48458
6983 2 11.7252 -13.3654 -6.25548
6982 2 11.7975 -15.182 -4.45311
372 2 15.4604 -15.1796 -4.46705
6980 2 13.5372 -15.207 -6.31372
6981 2 13.7078 -13.1309 -4.5382
408 2 -9.7149 -11.4942 -6.5415
409 2 -9.5614 -9.42229 -4.52602
1506 2 -7.78986 -9.45062 -6.47623
411 2 -11.2781 -9.32908 -6.6967
1505 2 -7.69046 -11.3736 -4.4754
1503 2 -5.56401 -11.3584 -6.24583
1504 2 -5.67861 -9.39289 -4.57835
2609 2 -3.78262 -9.2921 -6.29693
2608 2 -3.67096 -11.3884 -4.61847
2606 2 -1.85103 -11.3096 -6.44946
2607 2 -1.83089 -9.39775 -4.68374
3715 2 0.0388365 -9.34792 -6.38363
3714 2 0.213831 -11.1172 -4.58473
3712 2 2.19383 -11.1866 -6.56961
3713 2 2.21222 -9.12949 -4.49648
4819 2 4.03475 -9.3953 -6.32324
4818 2 4.01254 -11.2738 -4.55653
4816 2 6.18204 -11.1403 -6.46736
4817 2 6.32112 -9.14186 -4.58685
5921 2 7.92707 -11.3199 -4.41654
1545 1 7.85241 -11.1871 -6.14397
5922 2 8.11425 -9.41151 -6.44788
5919 2 9.85152 -11.2608 -6.32114
5920 2 9.86542 -9.37683 -4.4969
410 2 15.4761 -11.1436 -4.56549
7018 2 11.7801 -11.1584 -4.59362
7019 2 11.7114 -9.18592 -6.29376
5965 1 14.0281 -9.24 -6.36806
7016 2 13.6524 -10.7831 -6.74204
7017 2 13.6088 -9.26646 -4.5984
444 2 -9.59571 -7.44206 -6.45433
445 2 -9.58928 -5.37222 -4.46896
4902 1 -9.42763 -5.34445 -5.99989
1544 2 -7.8279 -5.71218 -6.44054
447 2 -11.3686 -5.35107 -6.33082
446 2 -11.3243 -7.45387 -4.53868
1543 2 -7.55932 -7.45845 -4.38659
1541 2 -5.96054 -7.44292 -6.41017
1542 2 -5.67035 -5.62718 -4.52512
2645 2 -3.72853 -7.44614 -4.49457
2646 2 -3.61327 -5.62794 -6.28784
2643 2 -1.62165 -7.50228 -6.46463
2644 2 -1.76737 -5.50873 -4.47066
3751 2 0.0609794 -7.4853 -4.39866
3752 2 0.176796 -5.67856 -6.34362
3749 2 1.97046 -7.7418 -6.50631
3750 2 2.18221 -5.66437 -4.63177
4856 2 3.8695 -5.3767 -6.60373
2577 1 4.15441 -6.93831 -6.40249
4855 2 4.2632 -7.52048 -4.72835
4853 2 6.14601 -7.2074 -6.42525
4854 2 5.82956 -5.5235 -4.48833
5960 2 8.19138 -5.65873 -6.54317
5959 2 8.0178 -7.27997 -4.37434
5957 2 9.98943 -7.34532 -6.24854
5958 2 9.80165 -5.37853 -4.43338
7056 2 11.8077 -5.41555 -6.28102
7055 2 11.9154 -7.29405 -4.45132
7053 2 13.7125 -7.4797 -6.41911
7054 2 13.6557 -5.47274 -4.56244
480 2 -9.24806 -3.64268 -6.33384
481 2 -9.4666 -1.66752 -4.45946
483 2 -11.1466 -1.77654 -6.42895
1580 2 -7.45405 -3.49113 -4.45369
1581 2 -7.4509 -1.58375 -6.26775
1578 2 -5.52469 -3.68961 -6.32578
1579 2 -5.51841 -1.53168 -4.32192
2682 2 -3.70808 -3.56695 -4.58644
2683 2 -3.57255 -1.60963 -6.31903
2680 2 -1.69981 -3.69251 -6.46182
2681 2 -1.75841 -1.67614 -4.5018
3789 2 0.0971362 -1.62952 -6.32447
3788 2 0.266109 -3.73231 -4.71342
3786 2 2.15592 -3.50041 -6.49306
3787 2 2.15143 -1.6991 -4.51726
4893 2 4.16262 -1.83934 -6.73642
4892 2 4.01314 -3.52648 -4.67052
4890 2 6.23046 -3.63598 -6.51188
4891 2 5.87923 -1.72513 -4.5079
6115 1 6.17433 -1.84189 -6.29911
5997 2 7.81312 -1.54993 -6.28248
5996 2 7.92464 -3.78227 -4.3719
5994 2 10.0014 -3.15479 -6.41102
5995 2 9.80702 -1.73684 -4.17846
482 2 15.5316 -3.59155 -4.35678
7092 2 11.8506 -1.61806 -6.42606
7091 2 11.7806 -3.52002 -4.37149
7089 2 13.577 -3.6497 -6.30961
7090 2 13.7138 -1.78176 -4.34808
517 2 -9.9021 0.202005 -6.28956
518 2 -9.57318 2.06192 -4.34685
520 2 -11.3403 2.24246 -6.42002
519 2 -11.3069 0.119897 -4.27222
1618 2 -7.73368 2.00107 -6.68444
1617 2 -7.59625 0.469514 -4.61892
1615 2 -5.30428 0.159935 -6.57888
1616 2 -5.61388 2.15812 -4.60212
2720 2 -3.82878 2.20117 -6.46865
2719 2 -3.59256 0.360991 -4.66183
2717 2 -1.76086 0.0530196 -6.56692
2718 2 -1.92584 2.1108 -4.84557
3828 2 0.151662 2.06173 -6.64214
3827 2 0.16884 0.263031 -4.59809
3825 2 2.1825 0.0590535 -6.46493
3826 2 1.90404 2.10871 -4.65789
4929 2 3.86653 0.355089 -4.55159
4927 2 5.94762 0.0768476 -6.40078
4928 2 5.99053 2.10941 -4.58933
6033 2 7.80123 2.22066 -6.41371
6032 2 7.88714 0.437595 -4.252
6030 2 9.9023 0.121923 -5.99374
6031 2 9.88056 2.20699 -4.3808
7128 2 11.6306 2.17497 -6.4566
7127 2 11.9384 0.199617 -4.25203
7125 2 13.6375 0.101912 -6.09451
7126 2 13.7677 2.11539 -4.5135
554 2 -9.30178 3.96664 -6.43407
556 2 -11.3775 4.08896 -4.5303
1653 2 -7.50846 3.89191 -4.56307
2755 2 -3.81847 4.0645 -4.59031
1651 2 -5.64737 3.84491 -6.43325
3866 2 0.0399138 3.82919 -4.68402
2716 1 -0.350232 3.61893 -6.35182
2753 2 -1.83992 4.15121 -6.48484
521 1 2.11392 2.63094 -6.5804
4930 2 3.74936 2.32548 -6.49417
4966 2 3.7968 4.08766 -4.58417
3864 2 1.8062 4.13545 -6.71409
4964 2 5.67221 3.90613 -6.49919
6069 2 7.81567 4.15767 -4.29582
6067 2 9.79132 3.93749 -6.40974
6068 2 9.68667 5.93754 -4.77475
7165 2 11.6001 5.79503 -6.47876
7162 2 13.7852 3.91762 -6.32678
7164 2 11.8631 4.06195 -4.55505
557 2 15.4657 5.84006 -6.4863
7163 2 13.6818 5.96122 -4.69373
590 2 -9.56909 8.05091 -6.48333
555 2 -9.57973 5.98393 -4.62153
1654 2 -7.74685 6.01721 -6.32745
1690 2 -7.57033 7.93951 -4.49988
1652 2 -5.59746 5.98444 -4.51697
1688 2 -5.71072 7.69887 -6.51161
2756 2 -3.64915 6.04582 -6.49613
2754 2 -1.6114 5.9897 -4.68442
2790 2 -1.56872 7.98657 -6.52077
2792 2 -3.53066 7.96713 -4.72012
2793 2 -3.60172 9.56922 -6.49418
3902 2 0.244477 8.31149 -4.72879
3867 2 0.161597 6.23477 -6.51984
3865 2 1.99904 6.02787 -4.70206
3900 2 1.96589 7.96271 -6.45409
5004 2 3.92888 7.94021 -4.39454
4967 2 4.07429 6.06765 -6.3742
4965 2 5.91564 6.2277 -4.64177
5002 2 6.09942 8.04331 -6.71227
6105 2 7.7292 8.21723 -4.47828
6070 2 7.81835 6.0525 -6.65003
2826 1 6.2648 5.97885 -6.33858
6103 2 9.62382 7.84581 -6.48776
7201 2 12.049 7.84124 -4.7125
592 2 15.4867 7.9554 -4.76119
7199 2 13.6048 7.95876 -6.71534
591 2 -9.53171 9.98878 -4.7236
626 2 -9.54481 11.8299 -6.59246
1691 2 -7.60247 9.86697 -6.42291
1727 2 -7.73679 11.764 -4.49641
628 2 -11.4339 11.9026 -4.70138
1725 2 -6.00633 12.0322 -6.44243
1689 2 -5.67674 9.76344 -4.75423
2829 2 -3.73937 11.7207 -4.68534
2827 2 -1.86535 11.6514 -6.54479
2791 2 -1.84731 9.8862 -4.68772
3903 2 0.12311 10.0995 -6.64755
3938 2 0.265425 11.7861 -4.6944
3936 2 2.08965 11.8843 -6.65026
3901 2 2.11954 10.0084 -4.56758
5005 2 3.80959 9.74951 -6.59002
5041 2 3.89805 11.8455 -4.59847
5039 2 5.96487 11.7883 -6.4153
5003 2 5.89409 9.94163 -4.57711
6143 2 7.78994 11.8624 -4.64358
6106 2 7.93736 9.93424 -6.65427
6141 2 9.38176 12.0886 -6.56569
6104 2 9.54232 9.89169 -4.81267
7238 2 11.6805 11.8897 -4.58672
7202 2 11.7387 9.92402 -6.47301
593 2 15.4165 9.74509 -6.67968
5156 1 13.713 10.0382 -6.47429
7236 2 13.5912 11.9861 -6.60438
7200 2 13.5777 10.1243 -4.64075
662 2 -9.63745 15.7171 -6.49757
627 2 -9.65534 13.6683 -4.81902
1763 2 -7.86633 15.5937 -4.48508
1728 2 -7.56711 13.8231 -6.52507
1761 2 -5.4601 15.6436 -6.30192
1726 2 -5.73447 13.7993 -4.5628
2865 2 -3.73389 15.5008 -4.55731
2830 2 -3.60431 13.6807 -6.43024
2863 2 -1.9223 15.4858 -6.50979
2828 2 -1.79516 13.5465 -4.69745
3939 2 -0.14579 13.6452 -6.62326
3975 2 -0.0236514 15.611 -4.59563
3973 2 1.89024 15.317 -6.41352
3937 2 2.01926 13.6347 -4.56298
5042 2 3.96807 13.5908 -6.68345
5077 2 4.0098 15.7627 -4.73173
5075 2 5.77115 15.8061 -6.54028
5040 2 5.7744 13.8653 -4.69049
6144 2 7.41766 13.7325 -6.566
6179 2 7.85042 15.8583 -4.65359
6177 2 9.37207 15.7946 -6.54101
6142 2 9.64022 13.7672 -4.55916
7274 2 11.5418 15.6467 -4.7806
7239 2 11.431 13.486 -6.46795
7178 1 14.929 16.0602 -6.44847
629 2 15.4683 13.9024 -6.80884
664 2 15.3621 15.7458 -4.66849
7272 2 13.5729 15.5473 -6.75962
7237 2 13.612 13.7373 -4.87106
698 2 -9.6363 19.7416 -6.35783
663 2 -9.66255 17.5354 -4.54355
1764 2 -7.84206 17.7095 -6.2418
665 2 -11.4355 17.6053 -6.34375
1799 2 -7.49325 19.6937 -4.54468
1797 2 -5.56961 19.314 -6.45398
1762 2 -5.81046 17.7911 -4.52019
2866 2 -3.8178 17.3846 -6.36476
2902 2 -3.81924 19.5431 -4.5388
2900 2 -1.76176 19.3879 -6.17965
2864 2 -1.85809 17.4199 -4.66878
4011 2 0.210397 19.2447 -4.48252
3976 2 0.152176 17.477 -6.70591
4009 2 2.16963 19.602 -6.45095
3974 2 1.96266 17.4185 -4.59967
5078 2 3.86892 17.4778 -6.64167
5114 2 3.97025 19.3491 -4.64977
5112 2 5.85068 19.4555 -6.5425
5076 2 5.99125 17.5898 -4.65669
6180 2 7.77671 17.7759 -6.74507
6216 2 7.844 19.5898 -4.6112
6214 2 9.89738 19.6788 -6.4182
6178 2 9.73128 17.6787 -4.73838
7311 2 11.5201 19.553 -4.63493
7275 2 11.5741 17.4141 -6.80381
700 2 15.3614 19.5367 -4.4379
7309 2 13.505 19.6568 -6.35034
7273 2 13.3555 17.6389 -4.8359
7422 1 -9.89858 21.613 -6.32412
734 2 -9.33424 23.0025 -6.649
699 2 -9.5971 21.6919 -4.53073
1800 2 -7.36087 21.404 -6.57899
1837 2 -7.4333 23.2556 -4.42074
1835 2 -5.67314 23.5232 -6.25283
1798 2 -5.56452 21.4066 -4.38867
2938 2 -3.86608 23.3964 -4.31263
2903 2 -3.77626 21.6428 -6.12835
2936 2 -1.58665 23.471 -6.09049
2901 2 -1.76802 21.5904 -4.518
4012 2 0.183083 21.4459 -6.15966
4049 2 0.21635 23.1946 -4.31381
4047 2 2.0067 23.2703 -6.27008
4010 2 2.13081 21.2915 -4.3011
4976 1 2.10466 21.4444 -6.24617
5115 2 3.9397 21.5272 -6.3069
5150 2 3.901 23.462 -4.32382
5148 2 5.93481 23.6373 -6.38401
5113 2 5.82641 21.146 -4.67486
6252 2 7.71948 23.4591 -4.67206
6217 2 7.93483 21.3494 -6.36464
6250 2 9.68231 23.3086 -6.31229
6215 2 9.64099 21.5905 -4.51672
7312 2 11.6504 21.5174 -6.30699
7347 2 11.4829 23.5004 -4.38537
701 2 15.4442 21.6977 -6.30066
736 2 15.4578 23.5319 -4.59712
7345 2 13.5188 23.4995 -6.31164
7310 2 13.386 21.6086 -4.45719
771 2 -9.4433 27.4555 -6.32339
735 2 -9.32062 25.4555 -4.47893
1873 2 -7.64875 27.5401 -4.63108
737 2 -11.3696 25.3469 -6.33471
1838 2 -7.53982 25.3627 -6.38962
1871 2 -5.73287 27.3756 -6.30271
1836 2 -5.80475 25.4478 -4.22668
2939 2 -3.79784 25.3339 -6.04779
2975 2 -3.72016 27.2848 -4.3616
2973 2 -1.6827 27.4168 -6.42903
2937 2 -1.63792 25.2716 -4.51096
3053 1 -0.0255564 27.6189 -5.97288
4085 2 0.139463 27.4029 -4.38545
4050 2 0.276405 25.6058 -6.0986
4083 2 2.00138 27.3942 -6.40721
4048 2 2.04218 25.3977 -4.31515
5151 2 3.95488 25.576 -6.17263
5187 2 3.96598 27.2074 -4.29519
5185 2 5.86765 27.2871 -6.59585
5149 2 5.98909 25.5569 -4.49316
6253 2 7.74141 25.7085 -6.39796
6288 2 7.77581 27.3636 -4.51449
6286 2 9.67766 27.4688 -6.5129
6251 2 9.92612 25.4924 -4.62755
7348 2 11.6103 25.5555 -6.48296
773 2 15.4427 27.2628 -4.60274
7383 2 11.8835 27.3425 -4.54252
7381 2 13.9231 27.158 -6.37078
7346 2 13.4873 25.3237 -4.41212
774 2 -11.3033 29.2808 -6.58801
1947 1 -9.74564 29.4055 -6.24778
808 2 -9.41071 31.102 -6.25914
772 2 -9.67611 29.2161 -4.42175
810 2 -11.3735 31.1139 -4.53434
1874 2 -7.50932 29.3461 -6.38364
1909 2 -7.55687 31.0215 -4.4576
1907 2 -5.41132 31.0859 -6.61719
1872 2 -5.51083 28.9819 -4.46363
3014 2 -3.90874 31.0474 -4.6257
2976 2 -3.86788 29.2107 -6.45008
3058 1 -3.71752 31.3509 -6.41298
2974 2 -1.95434 29.4054 -4.40967
3012 2 -1.92114 31.0995 -6.49261
4122 2 -0.00585089 31.3041 -4.47652
4086 2 0.0980056 29.2747 -6.39774
4120 2 2.08812 31.1005 -6.50595
4084 2 2.12688 29.1208 -4.16684
5224 2 4.03696 31.0426 -4.5474
5188 2 3.98464 28.8663 -6.25645
5186 2 5.99846 29.1158 -4.47934
5222 2 5.80713 30.9074 -6.45506
6289 2 7.8046 29.2168 -6.5886
6324 2 7.70913 31.0376 -4.63483
3940 1 9.53541 29.1992 -6.40689
6287 2 9.97038 29.1579 -4.56587
6322 2 9.83584 30.9936 -6.58697
7420 2 11.7687 31.0663 -4.43139
7384 2 11.847 29.0671 -6.56324
7382 2 13.6445 29.1788 -4.49747
7418 2 13.4386 30.9933 -6.71942
809 2 -9.59194 32.9839 -4.60957
844 2 -9.61411 35.1642 -6.45334
1945 2 -7.77243 34.8946 -4.49642
846 2 -11.3441 34.9481 -4.36487
1910 2 -7.43759 32.9867 -6.19189
1908 2 -5.60742 33.0452 -4.43459
1943 2 -5.79461 34.823 -6.39505
3051 2 -3.83961 35.0238 -4.55933
3049 2 -1.61921 34.7387 -6.4161
3015 2 -3.60891 33.2758 -6.40403
3013 2 -1.79268 33.0872 -4.54678
4123 2 0.334368 33.0021 -6.34086
4158 2 0.22548 35.1914 -4.54984
4156 2 1.94973 34.7574 -6.47975
5260 2 3.84589 35.015 -4.58719
4121 2 2.38099 33.0485 -4.53452
6325 2 7.70677 32.9587 -6.20055
5225 2 4.00677 32.9404 -6.62799
5223 2 5.83298 32.8456 -4.55076
5258 2 5.85956 34.8667 -6.47876
6361 2 7.60108 34.8144 -4.64991
7421 2 11.6629 32.9791 -6.46757
6323 2 9.64149 32.9107 -4.60125
6359 2 9.77181 34.8457 -6.31471
7419 2 13.4365 32.9223 -4.52895
811 2 15.2921 33.0136 -6.28368
7459 2 12.0035 35.1686 -4.57183
7457 2 13.6829 34.8738 -6.49809
845 2 -9.50688 36.9495 -4.44618
1946 2 -7.71477 36.9057 -6.32516
881 2 -9.47561 39.078 -6.38925
883 2 -11.3981 38.8297 -4.60373
1944 2 -5.7741 36.7369 -4.62125
3052 2 -3.85322 36.7212 -6.47442
1983 2 -7.52787 38.955 -4.55203
1981 2 -5.71863 39.0943 -6.58654
3090 2 -3.73235 38.8084 -4.57737
3050 2 -1.93797 36.7497 -4.56397
4159 2 0.115593 36.8503 -6.29621
3088 2 -1.83703 38.7168 -6.58106
4194 2 0.0324715 38.895 -4.63498
4157 2 2.04858 36.9909 -4.55037
5261 2 3.9204 37.0054 -6.28696
4192 2 1.72196 38.7454 -6.29151
5296 2 3.90002 38.9642 -4.40331
5259 2 5.99014 36.9319 -4.67323
5294 2 5.87545 38.9922 -6.1384
6362 2 7.86508 36.9283 -6.40275
6360 2 9.74237 36.9094 -4.6978
6397 2 7.88671 38.773 -4.5136
6395 2 9.89053 38.9351 -6.35115
7495 2 11.6896 39.055 -4.5371
847 2 15.3496 37.1065 -6.50913
7460 2 11.8571 37.1856 -6.40685
7458 2 13.6883 37.0348 -4.48376
7493 2 13.6709 39.13 -6.29314
882 2 -9.47434 40.7953 -4.58332
3129 1 -9.45706 40.9262 -6.29323
917 2 -9.59087 42.6796 -6.58431
1984 2 -7.56863 40.7739 -6.42742
1982 2 -5.56992 40.821 -4.60526
3091 2 -3.79154 40.7653 -6.54879
2019 2 -7.54323 42.661 -4.61449
2017 2 -5.75738 42.7549 -6.42479
3089 2 -1.79832 40.7144 -4.53136
4195 2 0.0835026 40.9919 -6.46333
3127 2 -3.63835 42.5975 -4.5959
3125 2 -1.90657 42.6425 -6.79044
4230 2 0.0960555 42.6394 -4.53336
4193 2 1.95973 40.8314 -4.52627
3108 1 0.19119 42.6683 -6.2231
4228 2 2.04356 42.5948 -6.55906
5334 2 3.94952 42.7967 -4.55365
5297 2 4.00051 40.7834 -6.30905
5295 2 5.92515 40.9796 -4.4934
5332 2 5.92244 42.7402 -6.50942
6398 2 8.05146 41.0281 -6.39935
6396 2 9.59061 40.891 -4.39849
7496 2 11.6434 40.8839 -6.51162
6434 2 7.98554 42.7216 -4.58681
6432 2 10.0544 42.9336 -6.41291
884 2 15.4148 40.9843 -6.61087
7494 2 13.7872 40.9359 -4.43685
919 2 15.5019 42.881 -4.70185
7531 2 11.8543 42.6181 -4.42265
7529 2 13.4017 42.7915 -6.57514
918 2 -9.5421 44.4672 -4.58559
2020 2 -7.59164 44.8265 -6.52996
954 2 -9.56317 46.7438 -6.44788
956 2 -11.3954 46.5694 -4.51042
2055 2 -7.62983 46.6429 -4.2902
2018 2 -5.67922 44.6855 -4.46125
3128 2 -3.7427 44.5621 -6.52714
2053 2 -5.35229 46.5907 -6.39495
3126 2 -1.82621 44.4917 -4.62658
4231 2 0.0786733 44.5146 -6.43089
3275 1 -3.60016 46.5079 -6.30381
3164 2 -3.50049 46.6898 -4.51116
3162 2 -1.79064 46.2943 -6.52701
4229 2 1.95641 44.491 -4.52187
5335 2 3.95675 44.6484 -6.45655
4266 2 0.175502 46.4409 -4.42092
4264 2 2.07495 46.3497 -6.27785
5333 2 5.97871 44.6468 -4.66403
6435 2 7.65307 44.6711 -6.35972
5372 2 4.0237 46.3919 -4.46407
5370 2 5.65789 46.8168 -6.33648
6470 2 7.69092 46.6365 -4.6234
6433 2 9.67927 44.7568 -4.45051
6468 2 9.63634 46.5584 -6.26591
7567 2 11.6235 46.5627 -4.28755
920 2 15.5197 44.4607 -6.61352
7532 2 11.7113 44.8371 -6.09766
5311 1 15.5302 46.1226 -6.59067
7530 2 13.6054 44.5959 -4.39385
7565 2 13.7744 46.4779 -6.32004
955 2 -9.65037 48.4753 -4.49872
991 2 -9.37983 50.2615 -6.38008
993 2 -11.346 50.3667 -4.55023
2091 2 -7.67311 50.4704 -4.50637
2056 2 -7.35299 48.4455 -6.21789
2054 2 -5.51188 48.6492 -4.63163
2089 2 -5.41467 50.4435 -6.35496
3165 2 -3.47676 48.3248 -6.66374
3163 2 -1.45914 48.2536 -4.29828
3200 2 -3.71944 50.5797 -4.42519
3198 2 -1.73377 50.2521 -6.2478
4302 2 0.122783 50.3486 -4.37991
4267 2 0.150821 48.4139 -6.30693
4265 2 1.95336 48.3265 -4.44956
5373 2 3.80905 48.6393 -6.41591
4300 2 2.08007 50.5424 -6.32412
5409 2 3.91753 50.244 -4.30359
5371 2 5.87105 48.3296 -4.46306
6471 2 7.77624 48.4565 -6.47055
5407 2 5.83214 50.3675 -6.27097
6469 2 9.87071 48.4093 -4.33335
7568 2 11.5509 48.4151 -6.20869
6507 2 7.8774 50.3229 -4.50154
6505 2 9.75955 50.2818 -6.34224
7603 2 11.6291 50.5358 -4.42604
957 2 15.4489 48.5312 -6.4465
7566 2 13.7129 48.6868 -4.58115
7601 2 13.515 50.5119 -6.4525
992 2 -9.53804 52.2931 -4.59084
1028 2 -9.72891 54.0835 -6.13955
2127 2 -7.72867 54.2681 -4.55596
2092 2 -7.4026 52.1624 -6.46949
2090 2 -5.74445 52.4968 -4.62107
3201 2 -3.76993 52.3752 -6.45537
2125 2 -5.79925 54.2844 -6.21419
3199 2 -1.7099 52.3969 -4.4697
958 1 -2.14922 52.5008 -6.09713
4303 2 0.0879526 52.3919 -6.34171
3236 2 -3.70702 54.1517 -4.42752
3234 2 -1.99947 54.4566 -6.57837
4338 2 0.119934 54.3157 -4.64045
4301 2 2.3181 52.3316 -4.51695
4336 2 2.12234 54.1794 -6.50573
5410 2 4.03399 52.2541 -6.61208
5408 2 5.70793 52.373 -4.60247
6508 2 7.7178 52.1234 -6.57951
5445 2 3.99537 54.251 -4.69099
5443 2 5.91291 54.2616 -6.56317
6543 2 7.58412 54.2721 -4.62188
6506 2 9.51319 52.2672 -4.51655
6541 2 9.71939 54.3647 -6.4906
7641 2 11.4414 54.2089 -4.37843
7604 2 11.8231 52.4822 -6.3855
1 1 13.2459 52.1729 -6.17582
994 2 15.3699 52.2351 -6.35412
7602 2 13.5125 52.2364 -4.39718
1030 2 15.4364 54.296 -4.42325
7639 2 13.5004 54.1691 -6.48656
1029 2 -9.60928 56.319 -4.48938
1031 2 -11.398 55.9535 -6.45181
2128 2 -7.66016 56.1834 -6.15151
1066 2 -9.5956 58.1342 -6.27686
2126 2 -5.78171 56.1219 -4.34148
3237 2 -3.92582 56.2206 -6.20669
2161 2 -5.69415 58.0825 -6.46435
3235 2 -1.9093 56.2121 -4.65825
3273 2 -3.72745 58.0793 -4.51304
4374 2 0.0427915 58.0583 -4.71136
4339 2 0.140553 56.2873 -6.41561
4337 2 2.05945 56.2676 -4.62521
4372 2 1.99689 58.194 -6.46368
5446 2 4.13998 56.2444 -6.37672
3365 1 5.84138 56.5066 -6.33315
5444 2 5.73252 56.0287 -4.47463
6544 2 7.68967 56.2581 -6.51687
5481 2 4.10864 58.0072 -4.51977
6580 2 7.7551 58.0818 -4.50813
6542 2 9.57372 56.0964 -4.44597
7642 2 11.6025 56.1767 -6.37168
6578 2 9.81207 57.8852 -6.26298
7640 2 13.5637 56.1565 -4.3563
1068 2 15.418 58.1825 -4.38328
7677 2 11.7401 58.0519 -4.4666
7675 2 13.929 57.869 -6.28821
1067 2 -9.66986 60.1581 -4.34423
2163 2 -7.7407 58.3173 -4.49591
2 2 -9.41814 61.865 -6.13933
2164 2 -7.52875 60.0193 -6.43794
2162 2 -5.63124 59.9086 -4.49628
3274 2 -3.98338 60.0548 -6.595
1104 2 -7.5345 61.9145 -4.51204
3271 2 -1.93942 58.2489 -6.19531
3272 2 -1.67356 60.002 -4.3666
4375 2 0.0690081 59.9509 -6.46434
3311 2 -0.0514868 61.8603 -4.56285
2197 1 -3.40347 61.8186 -6.47164
2200 2 -3.59783 61.8689 -4.62952
2198 2 -1.85866 61.8574 -6.59047
3309 2 1.70824 61.7498 -6.43575
4373 2 1.98259 59.9298 -4.40442
5482 2 3.96591 60.1116 -6.284
5479 2 5.71112 58.2752 -6.53488
5480 2 5.93149 59.906 -4.52996
6581 2 7.50976 60.2422 -6.56184
6616 2 11.4883 61.7647 -4.72132
6579 2 9.58846 60.1839 -4.6385
7678 2 11.5275 59.9476 -6.50247
1069 2 15.487 60.0303 -6.25116
7676 2 13.603 60.0208 -4.57348
6614 2 13.569 61.7854 -6.39278
7 2 -9.4516 -51.7829 -0.332956
1109 2 -7.58572 -51.9624 -2.29714
1108 2 -7.6592 -53.7086 -0.393495
9 2 -11.4078 -51.8526 -2.52181
1107 2 -5.63469 -51.9583 -0.361891
2205 2 -3.75388 -51.8613 -2.44219
2241 2 -3.60491 -50.0795 -0.45712
2203 2 -1.76835 -51.9874 -0.511682
2239 2 -1.67443 -50.048 -2.63654
3351 2 0.117834 -50.0651 -0.630084
3316 2 0.224309 -51.9261 -2.48036
3314 2 2.06654 -51.8107 -0.464176
4415 2 3.89956 -51.7322 -2.4974
4414 2 4.00439 -53.6497 -0.572564
5521 2 7.7537 -53.4488 -0.418512
4413 2 5.95559 -51.7315 -0.666015
5522 2 7.97645 -51.878 -2.39503
5520 2 9.6619 -51.7792 -0.371765
6621 2 11.5607 -51.97 -2.55586
6620 2 11.6719 -53.7028 -0.448299
6618 2 13.4018 -53.7124 -2.42489
6655 2 13.6833 -50.0516 -2.4318
6619 2 13.54 -51.777 -0.407344
43 2 -9.48956 -49.8067 -2.48584
45 2 -11.3047 -49.9754 -0.457368